19
terachem gradient in au, energy -537.4405626710, grad_rms 0.013719, grad_max 0.023920 on atom 5
Tc       0.0000031138      -0.0022858999      0.0000047316
 O      -0.0000066793       0.0195225258     -0.0000126891
 H      -0.0003064739       0.0089917803     -0.0010435425
 H       0.0003140091       0.0089863770      0.0010540768
 O       0.0188910925       0.0144827982      0.0023558592
 H       0.0005941994      -0.0066104419     -0.0067117237
 H       0.0004175275      -0.0070474769      0.0049272301
 O      -0.0000076254      -0.0184698611     -0.0000080314
 H       0.0027983944      -0.0082202265      0.0013511534
 H      -0.0027915529      -0.0082186461     -0.0013432030
 O      -0.0188907013       0.0144795920     -0.0023572336
 H      -0.0005957375      -0.0066073687      0.0067142686
 H      -0.0004164104      -0.0070495631     -0.0049248826
 O       0.0029109440      -0.0100015501      0.0173993925
 H       0.0037223024       0.0043156714      0.0045295326
 H      -0.0053238216       0.0047103997      0.0038763106
 O      -0.0029135682      -0.0099997806     -0.0174020384
 H      -0.0037216598       0.0043079620     -0.0045331882
 H       0.0053226477       0.0047137087     -0.0038760249
19
terachem gradient in au, energy -537.4691937901, grad_rms 0.010452, grad_max 0.020944 on atom 2
Tc       0.0019353301       0.0002580936     -0.0012648505
 O      -0.0019877825       0.0207946429      0.0015081030
 H      -0.0004767912       0.0011138709     -0.0017826103
 H       0.0015789888       0.0021909378      0.0008099664
 O       0.0126502781       0.0102599143      0.0013019264
 H      -0.0020386729      -0.0049642166     -0.0009281393
 H      -0.0019206286      -0.0049868015     -0.0001604650
 O      -0.0017894766      -0.0194868760      0.0009730989
 H       0.0019393461      -0.0010476354      0.0018990505
 H      -0.0008520438      -0.0018560779     -0.0023857432
 O      -0.0128013845       0.0101529951     -0.0011764270
 H       0.0019358032      -0.0049018402      0.0008869567
 H       0.0018489415      -0.0048931848      0.0000734621
 O       0.0014023134      -0.0075633347      0.0142863373
 H      -0.0002598924       0.0029599961      0.0003789434
 H      -0.0004215183       0.0033058420     -0.0003403192
 O      -0.0015875861      -0.0077135140     -0.0141616795
 H       0.0003290864       0.0029903528     -0.0003671191
 H       0.0005156903       0.0033868351      0.0004495084
19
terachem gradient in au, energy -537.4727685273, grad_rms 0.013203, grad_max 0.039412 on atom 2
Tc      -0.0025413212       0.0141230837      0.0019903338
 O       0.0018592213      -0.0393265416     -0.0018118252
 H      -0.0058268451      -0.0024521148      0.0005956906
 H       0.0044994441      -0.0028036581      0.0005617698
 O      -0.0030700745       0.0062246960      0.0004262554
 H      -0.0018289873      -0.0036602556      0.0019478220
 H      -0.0015640187      -0.0034789907     -0.0020985600
 O       0.0022416182       0.0303065023     -0.0009350336
 H      -0.0032014796       0.0022496562      0.0037542612
 H       0.0017995114       0.0023509420     -0.0031016876
 O       0.0036272856       0.0065277485     -0.0007417567
 H       0.0020989392      -0.0038906238     -0.0018998146
 H       0.0017575729      -0.0036672006      0.0023261255
 O       0.0000849634      -0.0071072698     -0.0091210434
 H      -0.0013958848       0.0028868979     -0.0022147055
 H       0.0014014457       0.0030236742     -0.0025738723
 O       0.0003969787      -0.0070767026      0.0084558572
 H       0.0012358222       0.0028102722      0.0020779515
 H      -0.0015741919       0.0029598858      0.0023622327
19
terachem gradient in au, energy -537.4818555132, grad_rms 0.004029, grad_max 0.006830 on atom 17
Tc       0.0000872159       0.0022506586     -0.0002190843
 O      -0.0002282020       0.0033722103     -0.0000224176
 H      -0.0007189821       0.0004432270     -0.0019996944
 H       0.0007688474       0.0007034885      0.0019831096
 O       0.0006875273       0.0063228722      0.0005408144
 H      -0.0010881104      -0.0035910372      0.0008305785
 H      -0.0009745218      -0.0033972555     -0.0012959298
 O      -0.0001290996      -0.0021444465      0.0002521077
 H       0.0007222151      -0.0002048949      0.0016179981
 H      -0.0007459457      -0.0004580971     -0.0016998607
 O      -0.0005593335       0.0064824899     -0.0005427675
 H       0.0011172511      -0.0037645795     -0.0008342621
 H       0.0009828482      -0.0035309470      0.0013187636
 O       0.0003958930      -0.0065932814      0.0013311062
 H      -0.0008528346       0.0026322547     -0.0007275098
 H       0.0007383567       0.0027976886     -0.0010032481
 O      -0.0003230785      -0.0067039653     -0.0012645073
 H       0.0008845072       0.0025799605      0.0007222038
 H      -0.0007645542       0.0028036537      0.0010126005
19
terachem gradient in au, energy -537.4837644744, grad_rms 0.003299, grad_max 0.005879 on atom 17
Tc       0.0005406269       0.0030989916     -0.0003934343
 O      -0.0005640398       0.0020457055      0.0000477282
 H      -0.0006602277      -0.0002274102     -0.0017590597
 H       0.0008870911      -0.0000535711      0.0015894449
 O       0.0009800700       0.0048780709      0.0004473968
 H      -0.0005004111      -0.0029197782      0.0006514112
 H      -0.0004322959      -0.0026914574     -0.0010583885
 O      -0.0004295394      -0.0015446461      0.0005783869
 H       0.0009988928       0.0002198799      0.0010543899
 H      -0.0007229568      -0.0000148287     -0.0012915757
 O      -0.0010764491       0.0048823442     -0.0003779902
 H       0.0005036690      -0.0031168740     -0.0006568089
 H       0.0004143907      -0.0028445251      0.0010329865
 O       0.0003661336      -0.0054523260      0.0013353762
 H      -0.0005229751       0.0023185706     -0.0003424651
 H       0.0005360051       0.0024390724     -0.0004384354
 O      -0.0003724010      -0.0057357614     -0.0012334989
 H       0.0005608961       0.0022604282      0.0003382020
 H      -0.0005064805       0.0024581145      0.0004763324
19
terachem gradient in au, energy -537.4879125764, grad_rms 0.001983, grad_max 0.003954 on atom 17
Tc      -0.0005686697       0.0003298805      0.0011342409
 O       0.0003013142      -0.0018253344     -0.0017288436
 H      -0.0009306400       0.0000881283     -0.0003065682
 H       0.0003857422      -0.0005854251      0.0006018375
 O      -0.0020899227       0.0013872841     -0.0003485394
 H       0.0008493749      -0.0008511301      0.0010393190
 H       0.0005799211      -0.0003914481     -0.0014108313
 O       0.0016410614       0.0024870764      0.0006148885
 H      -0.0004115757       0.0000015183      0.0002594499
 H       0.0000319213       0.0004390714     -0.0000280567
 O       0.0014876104       0.0008844723      0.0001990084
 H      -0.0005842625      -0.0012859428     -0.0011071552
 H      -0.0004171195      -0.0006921850      0.0015282827
 O       0.0004691974      -0.0015389492     -0.0027953816
 H      -0.0007098854       0.0012455537     -0.0001585248
 H       0.0009271494       0.0010736409      0.0003510907
 O      -0.0005874473      -0.0030508430      0.0024464385
 H       0.0006230227       0.0011236920      0.0000729838
 H      -0.0009967915       0.0011609395     -0.0003636401
19
terachem gradient in au, energy -537.4894040783, grad_rms 0.001635, grad_max 0.002846 on atom 5
Tc       0.0013232902      -0.0018522661      0.0013055524
 O      -0.0002527082      -0.0009247827     -0.0015741033
 H      -0.0001006762      -0.0008434342      0.0002480275
 H      -0.0001131080      -0.0011378882     -0.0002971983
 O      -0.0024878607       0.0007407623     -0.0011666531
 H       0.0012801180       0.0001358292      0.0008426839
 H       0.0009816172       0.0006355005     -0.0012528614
 O       0.0004188442      -0.0002430899      0.0013607511
 H       0.0001644030       0.0007297794     -0.0007876935
 H       0.0000914367       0.0008519053      0.0007806152
 O       0.0013884552       0.0014390652      0.0001890432
 H      -0.0010265550      -0.0004061835     -0.0009737127
 H      -0.0008043254       0.0001751883      0.0014079988
 O      -0.0016609083      -0.0000590209     -0.0007896530
 H      -0.0004225413       0.0006849534      0.0002330606
 H       0.0008787334       0.0004476147      0.0008797822
 O       0.0009002274      -0.0013656607      0.0006449507
 H       0.0004721244       0.0004455725     -0.0001905807
 H      -0.0010305673       0.0005461554     -0.0008600091
19
terachem gradient in au, energy -537.4898006952, grad_rms 0.001641, grad_max 0.005373 on atom 1
Tc      -0.0005663267      -0.0052944683      0.0007168647
 O       0.0011497829       0.0009407409      0.0008572937
 H       0.0002545927      -0.0004895436      0.0004087784
 H      -0.0002777053      -0.0005444998     -0.0005292947
 O      -0.0002132158       0.0011734054     -0.0003672586
 H       0.0003646604       0.0004590621      0.0001149045
 H       0.0004573269       0.0008490745      0.0003280569
 O      -0.0007075672      -0.0006435718     -0.0008501449
 H      -0.0006256478       0.0002496505     -0.0005807460
 H       0.0005626950       0.0002587690      0.0008057697
 O       0.0006763007       0.0021695403     -0.0005778073
 H      -0.0004644873      -0.0001972224     -0.0000821827
 H      -0.0004565479       0.0003421991     -0.0001215720
 O      -0.0012687741       0.0005698299     -0.0003242876
 H       0.0003232062       0.0004496427      0.0002084097
 H       0.0004271989       0.0002111746      0.0005899397
 O       0.0011542051      -0.0006235780      0.0002700236
 H      -0.0002472359       0.0000210366     -0.0000926948
 H      -0.0005424596       0.0000987584     -0.0007740515
19
terachem gradient in au, energy -537.4901273457, grad_rms 0.001358, grad_max 0.004343 on atom 1
Tc      -0.0000787885      -0.0042964997      0.0006264252
 O      -0.0003424047       0.0009805981     -0.0001540466
 H       0.0002907146      -0.0000100918      0.0001372191
 H      -0.0001423243       0.0002044286     -0.0003925942
 O       0.0009367434       0.0009937310     -0.0003705734
 H      -0.0002865962       0.0001952807     -0.0007337117
 H      -0.0001600125       0.0003320437      0.0010366914
 O       0.0000324145      -0.0000802708      0.0001806473
 H      -0.0005440756      -0.0002385688     -0.0003356049
 H       0.0004671916      -0.0002725580      0.0006905777
 O      -0.0003559869       0.0021186333     -0.0005280198
 H       0.0001469572      -0.0002452153      0.0007780414
 H       0.0001549493       0.0002718795     -0.0009560113
 O      -0.0006929789      -0.0005655485      0.0005847593
 H       0.0006069530       0.0003456998     -0.0002108746
 H      -0.0003033722       0.0001907558      0.0000998826
 O       0.0005094739      -0.0002151561     -0.0004887178
 H      -0.0006119208       0.0001438089      0.0002569150
 H       0.0003730621       0.0001470500     -0.0002210042
19
terachem gradient in au, energy -537.4903281818, grad_rms 0.000890, grad_max 0.002135 on atom 1
Tc       0.0006217588      -0.0020256329      0.0002577723
 O      -0.0004693606       0.0003649740      0.0003158493
 H      -0.0000053124       0.0002563586      0.0000969455
 H       0.0001012985       0.0005070835     -0.0002436101
 O       0.0006769871       0.0009175964     -0.0002276987
 H      -0.0005980993      -0.0001993369     -0.0003486138
 H      -0.0004527508       0.0001737492      0.0003047357
 O      -0.0002183239      -0.0004761827     -0.0000780796
 H       0.0000207351      -0.0001341414     -0.0004700901
 H       0.0001801410      -0.0002969050      0.0006220149
 O      -0.0006825435       0.0014645515     -0.0002439826
 H       0.0004635874      -0.0003036395      0.0004260444
 H       0.0004612094       0.0000950788     -0.0003640898
 O       0.0000147363      -0.0007542523      0.0007368491
 H       0.0001234407       0.0003454696     -0.0004230661
 H      -0.0002967048       0.0003186557     -0.0002378629
 O      -0.0001943837      -0.0004093446     -0.0007948644
 H      -0.0001118074       0.0000660602      0.0004030382
 H       0.0003653929       0.0000898581      0.0002687080
19
terachem gradient in au, energy -537.4904202083, grad_rms 0.000630, grad_max 0.001391 on atom 14
Tc      -0.0000437795      -0.0006782069     -0.0003500014
 O      -0.0002051693      -0.0001106913      0.0003442529
 H       0.0000005876       0.0001882406     -0.0000626173
 H       0.0000316739       0.0003423076     -0.0001361675
 O       0.0004165963       0.0009080550      0.0004352872
 H      -0.0004250706      -0.0004605840      0.0001360246
 H      -0.0002668772       0.0000606226     -0.0002754928
 O      -0.0000451759       0.0001683279     -0.0003053389
 H      -0.0001758292      -0.0000453198     -0.0002493573
 H       0.0003410768      -0.0002032059      0.0004700248
 O      -0.0002744665       0.0009509202     -0.0000609748
 H       0.0002915464      -0.0004174566     -0.0001874537
 H       0.0002607976      -0.0000238330      0.0002577118
 O       0.0002123440      -0.0012741029      0.0005151719
 H      -0.0002553739       0.0002368913     -0.0001770279
 H       0.0001081149       0.0002466697     -0.0002932758
 O      -0.0001635662       0.0000038198     -0.0005602337
 H       0.0002940718       0.0000086111      0.0001258895
 H      -0.0001014999       0.0000989340      0.0003735790
19
terachem gradient in au, energy -537.4904675579, grad_rms 0.000520, grad_max 0.001093 on atom 5
Tc      -0.0003125438       0.0000922276     -0.0004096352
 O       0.0001035810      -0.0004598106      0.0003157031
 H      -0.0001154650       0.0000421555     -0.0000344034
 H      -0.0000440892       0.0000769120     -0.0000385411
 O      -0.0002452986       0.0009845788      0.0004074459
 H       0.0000499776      -0.0005637578      0.0001073383
 H       0.0001092493      -0.0000375545     -0.0002123513
 O      -0.0000316048       0.0001987642     -0.0003999387
 H      -0.0001370657       0.0000657009     -0.0003075099
 H       0.0003485430      -0.0000435941      0.0004216508
 O       0.0002970404       0.0007692841      0.0001585668
 H      -0.0000647776      -0.0004268818     -0.0002268951
 H      -0.0000803080      -0.0001017240      0.0001948907
 O       0.0002194921      -0.0009310227     -0.0001341851
 H      -0.0002410875       0.0002078566      0.0001328872
 H       0.0001429651       0.0002372420     -0.0000654608
 O      -0.0000781684      -0.0001830654      0.0000874287
 H       0.0002330181       0.0000052356     -0.0001421937
 H      -0.0001534594       0.0000674532      0.0001452014
19
terachem gradient in au, energy -537.4905650304, grad_rms 0.000800, grad_max 0.001457 on atom 5
Tc      -0.0007789972       0.0007652499     -0.0004331759
 O       0.0006783547      -0.0005459517      0.0001187705
 H      -0.0001546280      -0.0001748642     -0.0000148550
 H      -0.0002305583      -0.0004498548      0.0000809331
 O      -0.0010549597       0.0009336253      0.0003721020
 H       0.0006832593      -0.0006161070      0.0000458018
 H       0.0005422042      -0.0001490840      0.0000112610
 O      -0.0000415666       0.0002571398     -0.0003636629
 H      -0.0001044654       0.0002148314     -0.0003918227
 H       0.0003172082       0.0001459463      0.0003512709
 O       0.0010481140       0.0005548763      0.0003767539
 H      -0.0005853900      -0.0004386781     -0.0001755887
 H      -0.0005259430      -0.0001717068     -0.0000153605
 O       0.0000945385      -0.0002737289     -0.0011204381
 H      -0.0001003905       0.0000423957      0.0005346945
 H       0.0000810521       0.0000707775      0.0003451122
 O       0.0002058275      -0.0000654616      0.0010812455
 H       0.0000007393      -0.0000647939     -0.0004778956
 H      -0.0000744006      -0.0000346119     -0.0003251455
19
terachem gradient in au, energy -537.4906518150, grad_rms 0.000869, grad_max 0.001360 on atom 14
Tc      -0.0008826430       0.0009114371     -0.0004485803
 O       0.0008233928      -0.0000375325     -0.0000042056
 H      -0.0000360560      -0.0003336540     -0.0000478310
 H      -0.0003263599      -0.0007585463      0.0001591658
 O      -0.0011266563       0.0005971482      0.0002332911
 H       0.0008319815      -0.0005799337      0.0000405856
 H       0.0005560709      -0.0001736689      0.0001617191
 O       0.0000478119       0.0002120854     -0.0002049864
 H      -0.0002393702       0.0001972081     -0.0003341536
 H       0.0002854997       0.0001745059      0.0001703825
 O       0.0011305107       0.0003948449      0.0005029373
 H      -0.0006923539      -0.0004474873     -0.0001398025
 H      -0.0005717277      -0.0001907359     -0.0001369151
 O      -0.0000722852       0.0005227538     -0.0012538065
 H       0.0000067278      -0.0001745648      0.0005716452
 H       0.0000208186      -0.0001362198      0.0005119781
 O       0.0004268864       0.0001415153      0.0012165835
 H      -0.0001649756      -0.0001832239     -0.0004693237
 H      -0.0000172718      -0.0001359312     -0.0005286848
19
terachem gradient in au, energy -537.4907163709, grad_rms 0.000594, grad_max 0.001182 on atom 14
Tc      -0.0003784951       0.0004654585     -0.0002671741
 O       0.0005400921       0.0003361297     -0.0001584439
 H       0.0000138241      -0.0002400994     -0.0000489942
 H      -0.0001786871      -0.0005730323      0.0001404840
 O      -0.0006771195       0.0003119370     -0.0000210193
 H       0.0005202772      -0.0004546329      0.0000267815
 H       0.0002321670      -0.0000993657      0.0001884764
 O      -0.0000158447      -0.0000599557      0.0001037594
 H      -0.0001743050       0.0001290356     -0.0003151572
 H       0.0000910274       0.0000924406      0.0000987465
 O       0.0006622156       0.0003494217      0.0004191635
 H      -0.0004376354      -0.0004506586     -0.0000675309
 H      -0.0002875399      -0.0001420338     -0.0001387663
 O      -0.0002515746       0.0009655874     -0.0006336034
 H       0.0000339655      -0.0003195166      0.0002549136
 H       0.0000100170      -0.0002755789      0.0003518548
 O       0.0004649685       0.0003846440      0.0006342881
 H      -0.0001576107      -0.0002626909     -0.0001759390
 H      -0.0000097413      -0.0001570897     -0.0003918393
19
terachem gradient in au, energy -537.4907608776, grad_rms 0.000412, grad_max 0.001151 on atom 14
Tc       0.0002397454      -0.0002649619     -0.0001089408
 O      -0.0001193715       0.0003639746     -0.0001861754
 H       0.0000783753      -0.0000490728     -0.0000745987
 H       0.0000323420      -0.0000795796      0.0001257810
 O       0.0000785056       0.0000922774     -0.0000743881
 H       0.0000046107      -0.0003437787      0.0000029824
 H      -0.0001783026       0.0000032684      0.0001244847
 O       0.0000361280      -0.0001112094      0.0003230696
 H      -0.0001720376      -0.0000329221     -0.0002474218
 H      -0.0000183519      -0.0000376245      0.0000406651
 O      -0.0000519990       0.0003963276      0.0001251174
 H      -0.0000334397      -0.0004088053      0.0000030679
 H       0.0001007509      -0.0000427780     -0.0000700640
 O      -0.0002337690       0.0011037747      0.0002287924
 H       0.0000255847      -0.0003735214     -0.0001228353
 H       0.0000155833      -0.0003191151      0.0000281481
 O       0.0002959857       0.0005314638     -0.0001600010
 H      -0.0000775392      -0.0002973383      0.0001266794
 H      -0.0000227990      -0.0001303787     -0.0000843632
19
terachem gradient in au, energy -537.4907943617, grad_rms 0.000526, grad_max 0.001224 on atom 14
Tc       0.0005556956      -0.0006863836      0.0000540983
 O      -0.0004096611       0.0000786998     -0.0002378170
 H       0.0000111433       0.0001544479     -0.0000984100
 H       0.0002290653       0.0002903063      0.0001227298
 O       0.0004266437       0.0000620391     -0.0001024929
 H      -0.0002908476      -0.0002675264     -0.0000214183
 H      -0.0003394811       0.0000902334      0.0000132854
 O      -0.0000376988      -0.0001919480      0.0004645034
 H      -0.0000737658      -0.0000695041     -0.0001995497
 H      -0.0001060890      -0.0000729416      0.0000214820
 O      -0.0003498323       0.0003439151     -0.0001002741
 H       0.0001952134      -0.0003696078      0.0000398055
 H       0.0002765093       0.0000491180      0.0000381047
 O      -0.0001942783       0.0010053419      0.0006698384
 H      -0.0000383707      -0.0003771626     -0.0003315011
 H       0.0000245376      -0.0003128975     -0.0001978062
 O       0.0001203654       0.0006306892     -0.0005335273
 H       0.0000276821      -0.0002863002      0.0002540073
 H      -0.0000268310      -0.0000705189      0.0001449423
19
terachem gradient in au, energy -537.4908396504, grad_rms 0.000684, grad_max 0.001316 on atom 14
Tc       0.0007263126      -0.0010060912      0.0001117261
 O      -0.0007709691      -0.0002603741     -0.0001158283
 H      -0.0000161701       0.0002813581     -0.0002209446
 H       0.0003745436       0.0006254394      0.0002312103
 O       0.0007581047      -0.0000763854      0.0000824114
 H      -0.0005634808      -0.0002358082     -0.0000314159
 H      -0.0003725097       0.0001819755     -0.0001148202
 O      -0.0000124030      -0.0001220394      0.0004540405
 H      -0.0000280059      -0.0001166047     -0.0000736536
 H      -0.0001159474      -0.0000907445     -0.0000635298
 O      -0.0005744630       0.0002247659     -0.0004182890
 H       0.0003794930      -0.0002417837      0.0000373995
 H       0.0003477720       0.0002053857      0.0001471970
 O       0.0000047214       0.0009027469      0.0009570227
 H      -0.0000712209      -0.0003738140     -0.0004088655
 H       0.0000430175      -0.0002614318     -0.0003926385
 O      -0.0001769221       0.0006008203     -0.0008027595
 H       0.0000990806      -0.0002510240      0.0002519468
 H      -0.0000309538       0.0000136104      0.0003697915
19
terachem gradient in au, energy -537.4908914541, grad_rms 0.000601, grad_max 0.001305 on atom 1
Tc       0.0005361942      -0.0011603923      0.0002639332
 O      -0.0005743003      -0.0005314298     -0.0000302480
 H      -0.0001315803       0.0003205492     -0.0003758813
 H       0.0004394534       0.0005968826      0.0003764022
 O       0.0004468298       0.0000534053      0.0000533834
 H      -0.0004790336      -0.0001664429     -0.0000584866
 H      -0.0001056080       0.0003072061     -0.0002053022
 O       0.0000279439      -0.0000082319      0.0003149530
 H       0.0000234210      -0.0000656980      0.0001133820
 H      -0.0001128734      -0.0000499291     -0.0001480570
 O      -0.0003123635      -0.0001276547     -0.0005306726
 H       0.0003072028      -0.0000775554      0.0000229610
 H       0.0001605337       0.0003837377      0.0002326574
 O       0.0000552634       0.0005842190      0.0007220100
 H      -0.0000746177      -0.0003121394     -0.0003086234
 H       0.0000185004      -0.0001520963     -0.0003873985
 O      -0.0003576830       0.0003954874     -0.0005733021
 H       0.0001418565      -0.0001466334      0.0001106587
 H      -0.0000091400       0.0001567158      0.0004076332
19
terachem gradient in au, energy -537.4909336343, grad_rms 0.000419, grad_max 0.000681 on atom 4
Tc       0.0001098226      -0.0005847861      0.0001846594
 O      -0.0002156043      -0.0005526334      0.0001155402
 H      -0.0002164861       0.0001959957     -0.0004796457
 H       0.0003171103       0.0002889649      0.0005293136
 O       0.0001745948      -0.0000718801      0.0001584496
 H      -0.0002361545      -0.0001878714     -0.0000903977
 H       0.0001446468       0.0003491435     -0.0001372789
 O       0.0000607603       0.0000358106      0.0000378194
 H       0.0001181605      -0.0000058577      0.0002335526
 H      -0.0000931134       0.0000213076     -0.0002214619
 O      -0.0000916627      -0.0004089965     -0.0004669069
 H       0.0001428117       0.0000831248     -0.0000008932
 H      -0.0000388229       0.0005112564      0.0001469607
 O       0.0001282304       0.0004212252      0.0002287666
 H      -0.0000106404      -0.0002616869     -0.0000697843
 H       0.0000130239      -0.0000636856     -0.0001968903
 O      -0.0003633278       0.0000730465     -0.0001403606
 H       0.0000528904      -0.0000632717     -0.0000714284
 H       0.0000037593       0.0002207943      0.0002399862
19
terachem gradient in au, energy -537.4909875144, grad_rms 0.000497, grad_max 0.000800 on atom 11
Tc      -0.0004936162       0.0000049365      0.0001205977
 O       0.0004330556      -0.0000975027      0.0002424709
 H      -0.0001643153      -0.0000944555     -0.0005399507
 H       0.0000007012      -0.0003699287      0.0005907404
 O      -0.0004877678      -0.0000353494     -0.0000190923
 H       0.0002413282      -0.0001436021     -0.0002170343
 H       0.0004383095       0.0004117890      0.0001124212
 O       0.0001932564       0.0002578081     -0.0002641402
 H       0.0000673230       0.0000471589      0.0003496206
 H       0.0000234516       0.0000936371     -0.0002629501
 O       0.0002523550      -0.0007472128     -0.0001353420
 H      -0.0001329801       0.0002175615      0.0001100111
 H      -0.0002672487       0.0005892320     -0.0001235262
 O       0.0000331428      -0.0000063497     -0.0005110533
 H       0.0000747007      -0.0000984828      0.0002629591
 H      -0.0000139911       0.0000818290      0.0001851721
 O      -0.0001529145      -0.0004956248      0.0005004529
 H      -0.0000824226       0.0000868131     -0.0002619386
 H       0.0000376319       0.0002977427     -0.0001394168
19
terachem gradient in au, energy -537.4910488014, grad_rms 0.000806, grad_max 0.001413 on atom 1
Tc      -0.0009397247       0.0010533152     -0.0000550753
 O       0.0009626943       0.0002646229      0.0002552960
 H      -0.0001803031      -0.0002895417     -0.0004920139
 H      -0.0002363551      -0.0008691963      0.0005388804
 O      -0.0007501729      -0.0002412133     -0.0000969882
 H       0.0005480008      -0.0001958363     -0.0001603493
 H       0.0004950476       0.0004879259      0.0002675966
 O       0.0001636805       0.0001600847     -0.0004690346
 H       0.0001346251       0.0001044842      0.0003695109
 H       0.0000372525       0.0001276380     -0.0002251463
 O       0.0003703226      -0.0009211767      0.0002153761
 H      -0.0003255181       0.0002346167      0.0000096841
 H      -0.0003325267       0.0006442089     -0.0002093880
 O      -0.0000990585      -0.0004245399     -0.0010973822
 H       0.0001022692       0.0000540704      0.0004466053
 H       0.0000409028       0.0001641808      0.0004911702
 O       0.0002010058      -0.0008328357      0.0009634525
 H      -0.0001882877       0.0001877304     -0.0002818219
 H      -0.0000038545       0.0002914619     -0.0004703726
19
terachem gradient in au, energy -537.4911503874, grad_rms 0.001124, grad_max 0.002137 on atom 1
Tc      -0.0011464429       0.0017620976     -0.0003833372
 O       0.0011370898       0.0009569713      0.0003011577
 H       0.0000557274      -0.0005345261     -0.0003205480
 H      -0.0005052757      -0.0012606372      0.0003100558
 O      -0.0007381630      -0.0004634645     -0.0002970933
 H       0.0007635264      -0.0002663139     -0.0000337385
 H       0.0003407219       0.0006412834      0.0004968291
 O       0.0002216977       0.0003650305     -0.0006226075
 H      -0.0000149708       0.0001089465      0.0003533993
 H       0.0001289941       0.0000999006     -0.0001529436
 O       0.0002282898      -0.0009325586      0.0007046454
 H      -0.0004752716       0.0001239584     -0.0000684197
 H      -0.0002463984       0.0006419480     -0.0003327611
 O      -0.0003216597      -0.0011259603     -0.0015088248
 H       0.0001751932       0.0003703185      0.0005016521
 H       0.0000146620       0.0003025360      0.0007726225
 O       0.0007267031      -0.0013413167      0.0012146312
 H      -0.0003338338       0.0003523641     -0.0001236561
 H      -0.0000105887       0.0001994241     -0.0008110638
19
terachem gradient in au, energy -537.4912496092, grad_rms 0.001119, grad_max 0.002679 on atom 1
Tc      -0.0008465881       0.0025016628     -0.0004510934
 O       0.0008720282       0.0006734054      0.0000532926
 H       0.0000113879      -0.0004288195     -0.0001156689
 H      -0.0003662328      -0.0009353366      0.0001149864
 O      -0.0003356334      -0.0006752625     -0.0003121131
 H       0.0006316727      -0.0003649410      0.0001340137
 H       0.0000566910       0.0007551825      0.0005032085
 O       0.0000618146       0.0001136753     -0.0005334327
 H       0.0000805543       0.0000634725      0.0003121770
 H      -0.0000061450       0.0000565691     -0.0001331166
 O      -0.0000360200      -0.0007894423      0.0008848149
 H      -0.0003974983      -0.0000999352     -0.0002307476
 H      -0.0000561844       0.0006274276     -0.0002144604
 O      -0.0003936276      -0.0015304971     -0.0013026076
 H       0.0001717332       0.0005454633      0.0002886110
 H      -0.0000216556       0.0003377007      0.0006532643
 O       0.0009290916      -0.0013235431      0.0010030613
 H      -0.0003149667       0.0004222532      0.0001126795
 H      -0.0000404212       0.0000509657     -0.0007668687
19
terachem gradient in au, energy -537.4913840391, grad_rms 0.000818, grad_max 0.002089 on atom 1
Tc      -0.0001328327       0.0020677725     -0.0002667956
 O      -0.0000740988       0.0001548469     -0.0003501682
 H       0.0000400934       0.0000087677      0.0001001713
 H       0.0000022298       0.0000216095     -0.0000624014
 O       0.0002604891      -0.0007340862     -0.0002125748
 H       0.0001126398      -0.0003511082     -0.0000255665
 H      -0.0004099209       0.0006961474      0.0005899986
 O      -0.0000244249      -0.0000085493     -0.0002654704
 H      -0.0000597720      -0.0000608457      0.0001172954
 H      -0.0000243003      -0.0000359337     -0.0000585836