55
terachem gradient in au, energy -1895.8957435636, grad_rms 0.031819, grad_max 0.119466 on atom 1
Mn      -0.0701804388      -0.0828770578      0.0497810753
 C       0.0140998799       0.0028602298      0.0004579992
 N      -0.0052066785       0.0075174479      0.0078702493
 C      -0.0549606351       0.0065842544      0.0014897795
 C       0.0187010391       0.0181743589     -0.0012938310
 C       0.0144616673      -0.0524057812     -0.0010203998
 N       0.0267106603       0.0006381399     -0.0295977034
 C       0.0103817682       0.0134897132     -0.0003823809
 O       0.0185864943      -0.0056921841      0.0037833352
 C      -0.0203000560       0.0516494268     -0.0034327529
 O      -0.0488605823       0.0534258962     -0.0031184764
 C       0.0278420594       0.0519849091     -0.0043176590
 C       0.0510618071       0.0238382242      0.0075272989
 O       0.0426141294      -0.0442061981     -0.0191014483
 C       0.0527559117      -0.0182763316      0.0073589228
 O      -0.0026434450       0.0199240410     -0.0045209175
 C      -0.0135635216       0.0072294119      0.0012234068
 C       0.0086474150      -0.0008856109     -0.0033677746
 C      -0.0145211808      -0.0158010784      0.0021897908
 C      -0.0167299355      -0.0146325326     -0.0036118227
 C      -0.0004270163       0.0086901930      0.0039293000
 C       0.0073629951      -0.0132654712     -0.0024076081
 C      -0.0352089181       0.0188706321     -0.0020562006
 C      -0.0230155543      -0.0003815571     -0.0014666803
 C      -0.0141710981      -0.0133640349      0.0008585291
 C       0.0290749601      -0.0264516087      0.0002095177
 H      -0.0010706160       0.0013296958      0.0081693124
 H       0.0017437048      -0.0006109031     -0.0080379458
 H      -0.0063929782      -0.0003061155     -0.0018677035
 H       0.0012566588       0.0011801641     -0.0077239859
 H       0.0021921628       0.0011707346      0.0103107349
 H      -0.0058741601       0.0016441043     -0.0009050682
 H       0.0016903849      -0.0061877236      0.0012712876
 H       0.0007481120       0.0019659945     -0.0103567169
 H       0.0008405913       0.0017087707      0.0076844579
 H      -0.0004910629      -0.0066406081      0.0022655318
 H       0.0024216669       0.0019250173      0.0015554829
 H       0.0016138165      -0.0013035592      0.0016248793
 H      -0.0018460657       0.0020141922     -0.0009359295
 H       0.0024611250       0.0030492730     -0.0005730163
 P       0.0058122253       0.0054036854     -0.0456623363
 C      -0.0067806842      -0.0011805730      0.0052628117
 C      -0.0021213728      -0.0043482412     -0.0001499737
 C       0.0038597318      -0.0028122245      0.0036886124
 C       0.0019318639       0.0030029627      0.0028657300
 C      -0.0001324186       0.0059136172      0.0005051472
 C      -0.0030165130      -0.0021440691     -0.0006690524
 H       0.0062363331      -0.0108471717      0.0074068170
 H      -0.0066319020       0.0084132895      0.0121599263
 H       0.0001350818       0.0029658637      0.0001955204
 H      -0.0009893733       0.0016744818     -0.0011544148
 H      -0.0012264645      -0.0011437016     -0.0014397643
 H       0.0009829052      -0.0020882378      0.0003229408
 H       0.0019129368      -0.0019315725      0.0020688811
 O      -0.0017774160       0.0015454233      0.0051342837
55
terachem gradient in au, energy -1895.9376319846, grad_rms 0.019683, grad_max 0.092974 on atom 1
Mn      -0.0481856509      -0.0611165945      0.0508636579
 C       0.0044402119      -0.0026167553      0.0010826334
 N       0.0009695038       0.0059904173      0.0075027895
 C      -0.0225679273      -0.0003695889      0.0002399402
 C       0.0150415748       0.0142447071     -0.0009094839
 C       0.0039656147      -0.0197992899     -0.0001137043
 N       0.0165382482       0.0044709828     -0.0300354593
 C       0.0036774042       0.0057343158     -0.0006754427
 O       0.0120534989      -0.0027374325      0.0027201601
 C      -0.0158341210       0.0124259891      0.0017440414
 O      -0.0273786898       0.0393639876      0.0008232828
 C       0.0164766590       0.0290333072     -0.0013426723
 C       0.0307068258       0.0143332796      0.0054342356
 O       0.0260054945      -0.0243086626     -0.0203527622
 C       0.0190164115      -0.0124563046      0.0019752908
 O      -0.0007746083       0.0141620581     -0.0035973910
 C      -0.0071291030       0.0040319943      0.0016360422
 C      -0.0001097994      -0.0019439093     -0.0049017208
 C      -0.0034732341      -0.0039875716      0.0026653474
 C      -0.0039266234      -0.0038592141     -0.0040308908
 C      -0.0014770967      -0.0001985062      0.0051168968
 C       0.0037697160      -0.0075292508     -0.0026481114
 C      -0.0110277235      -0.0004368362     -0.0021246827
 C      -0.0125580968       0.0057277809     -0.0020548817
 C      -0.0019687159      -0.0058425039      0.0014503995
 C       0.0058394646      -0.0063905237      0.0004932717
 H      -0.0026807370      -0.0001639605      0.0047122035
 H      -0.0000783970      -0.0018872796     -0.0046522823
 H      -0.0037643364      -0.0015620369     -0.0015199373
 H       0.0008119851       0.0012308187     -0.0040378302
 H       0.0020653022       0.0012941849      0.0069861010
 H      -0.0033858451       0.0017057620     -0.0004393718
 H       0.0018416147      -0.0037293347      0.0007918486
 H       0.0012365781       0.0020588018     -0.0067340746
 H       0.0008883038       0.0009916444      0.0041654324
 H      -0.0018843711      -0.0041583876      0.0018194909
 H       0.0021054358       0.0009493999      0.0014453501
 H       0.0006146311      -0.0013145899      0.0015445413
 H      -0.0013358058       0.0007606025     -0.0009093426
 H       0.0011344430       0.0022757321     -0.0004659964
 P       0.0038670059       0.0049368127     -0.0324721722
 C      -0.0026556280       0.0001393712      0.0060210019
 C      -0.0013494052      -0.0019714303      0.0007164545
 C       0.0009340248      -0.0011832708      0.0010948153
 C       0.0006643765       0.0013677953      0.0012857551
 C      -0.0001232584       0.0016982520      0.0001149508
 C      -0.0013450275      -0.0010584341      0.0005693041
 H       0.0038324789      -0.0066074574      0.0040585013
 H      -0.0038329395       0.0056482907      0.0078664309
 H       0.0004103490       0.0012128904      0.0000538522
 H      -0.0003902440       0.0008528868     -0.0005760442
 H      -0.0005042146      -0.0004653376     -0.0006004096
 H       0.0006398768      -0.0009619731      0.0001511373
 H       0.0004743865      -0.0005666449      0.0004487357
 O      -0.0002798197       0.0025810185     -0.0023992328
55
terachem gradient in au, energy -1895.9561587316, grad_rms 0.012781, grad_max 0.073641 on atom 1
Mn      -0.0323965163      -0.0464906016      0.0470333716
 C       0.0002061937      -0.0030898543      0.0012414842
 N       0.0018694804       0.0020461587      0.0056311528
 C      -0.0068027817      -0.0016754805      0.0013963217
 C       0.0073831716       0.0067127344     -0.0007772849
 C       0.0023966273      -0.0083072852      0.0007261830
 N       0.0025781069       0.0056820989     -0.0286860146
 C       0.0009866209       0.0016541559     -0.0004496953
 O       0.0022291736      -0.0043597907      0.0032555683
 C      -0.0013957982      -0.0015335821      0.0019319995
 O      -0.0090626248       0.0191719015      0.0044172746
 C       0.0080412313       0.0113898916      0.0012684849
 C       0.0105003023       0.0072213380      0.0020865638
 O       0.0151403304      -0.0056337346     -0.0209116736
 C      -0.0007422810      -0.0046598578     -0.0003452544
 O      -0.0006498617       0.0047596256     -0.0041981924
 C       0.0030008752       0.0027333935      0.0026568578
 C      -0.0034133486      -0.0019729824     -0.0049373221
 C       0.0004265631      -0.0014766884      0.0025700882
 C      -0.0021226866       0.0010527126     -0.0037048648
 C      -0.0019136380      -0.0038552509      0.0045556141
 C       0.0030024621       0.0047543286     -0.0029765112
 C      -0.0053355941      -0.0018281395     -0.0019104360
 C       0.0026098849       0.0069098363     -0.0013314510
 C       0.0025654887       0.0038198301      0.0027202465
 C       0.0005913115      -0.0016173136      0.0004356767
 H      -0.0032561394      -0.0016840545      0.0019304046
 H      -0.0016775428      -0.0024725225     -0.0020153973
 H      -0.0009248961      -0.0008704115     -0.0010305677
 H       0.0007924128       0.0007910857     -0.0005801066
 H       0.0023861364       0.0008351731      0.0036748363
 H      -0.0014202987       0.0004621030      0.0000414866
 H       0.0003246856      -0.0013709908      0.0002607565
 H       0.0008406398       0.0025658404     -0.0031832147
 H       0.0005494430       0.0010474998      0.0009431686
 H      -0.0008731596      -0.0007778960      0.0012760953
 H       0.0007662448       0.0013798305      0.0012537635
 H       0.0010083142      -0.0007879961      0.0012896991
 H      -0.0003971295       0.0006854839     -0.0008017723
 H       0.0011307624       0.0006539789     -0.0004353990
 P       0.0013824412       0.0057012075     -0.0172350540
 C       0.0004006989      -0.0011893193      0.0035472958
 C      -0.0010899823       0.0007553957      0.0007935952
 C      -0.0001334532      -0.0001317644      0.0005959957
 C      -0.0006731725      -0.0002713295      0.0000589828
 C      -0.0004592241       0.0011624436      0.0000347806
 C       0.0016435262      -0.0012036971      0.0005585110
 H       0.0006557538      -0.0019249578      0.0003987985
 H      -0.0007247160       0.0019060624      0.0029129267
 H       0.0004239351       0.0003092030     -0.0001547757
 H       0.0001015722       0.0002311773     -0.0000876256
 H      -0.0001075062       0.0000321832     -0.0002069341
 H       0.0003928008       0.0001512887      0.0000735010
 H       0.0001100508       0.0001329279     -0.0019830877
 O      -0.0008648907       0.0024746111     -0.0036288506
55
terachem gradient in au, energy -1895.9724368982, grad_rms 0.009707, grad_max 0.046971 on atom 1
Mn      -0.0123989488      -0.0256664475      0.0373328347
 C       0.0010044492       0.0021252118      0.0047359733
 N       0.0041529836      -0.0001367815     -0.0047739318
 C       0.0113256545      -0.0023326728      0.0031596431
 C      -0.0007718409      -0.0012027415     -0.0003309651
 C      -0.0068820320       0.0135011111      0.0010062983
 N       0.0007059108       0.0069030926     -0.0206301091
 C      -0.0003045977       0.0043646030     -0.0010391323
 O      -0.0045715975       0.0007688621      0.0034842462
 C       0.0081159618      -0.0078596880     -0.0027409139
 O       0.0115199931       0.0024586833      0.0077629695
 C      -0.0015257189      -0.0049760621      0.0020966124
 C      -0.0073396797      -0.0001367628     -0.0033640982
 O       0.0031436050       0.0135621989     -0.0187924712
 C      -0.0097765808       0.0045821374      0.0036253479
 O       0.0000729268      -0.0035853462     -0.0066862488
 C       0.0054314196      -0.0000629654      0.0010085103
 C      -0.0029788551      -0.0006689810     -0.0024268928
 C       0.0021563719      -0.0001453022      0.0019926038
 C       0.0013348612       0.0028172855     -0.0019657972
 C      -0.0015554246      -0.0039678544      0.0021501857
 C      -0.0008806129       0.0042436340     -0.0000773403
 C       0.0135943484      -0.0072659496      0.0008376823
 C      -0.0049722076      -0.0071803515     -0.0004391799
 C       0.0002594990      -0.0039655204     -0.0027459204
 C      -0.0082630289       0.0071551985      0.0011071364
 H      -0.0002700040      -0.0011818922     -0.0008652274
 H      -0.0011275292      -0.0006786060      0.0007361454
 H       0.0011932322       0.0004383716     -0.0000644335
 H       0.0000428413      -0.0005729405      0.0022494958
 H       0.0011912350       0.0003588827     -0.0005599171
 H       0.0006910080      -0.0004089010      0.0003631284
 H      -0.0002671735       0.0009070595     -0.0000412011
 H       0.0003411304       0.0012031570      0.0010784729
 H      -0.0000009285       0.0003897511     -0.0019035026
 H       0.0004251776       0.0010248209      0.0004118206
 H       0.0002260503      -0.0006088911      0.0001708706
 H      -0.0010191742      -0.0009359681     -0.0002990336
 H      -0.0000953609      -0.0008684083     -0.0007364552
 H      -0.0004083968      -0.0002303311     -0.0000110489
 P       0.0028892689       0.0035500387      0.0018036038
 C       0.0055773281       0.0011229193     -0.0014791956
 C      -0.0030714337      -0.0016186828      0.0028556372
 C      -0.0022787036       0.0007950609     -0.0007487493
 C       0.0015463717       0.0021499488      0.0008825788
 C       0.0010466321      -0.0056384148     -0.0002493645
 C      -0.0045265188       0.0037821564     -0.0020818965
 H      -0.0021754721       0.0015003769     -0.0022479832
 H       0.0023207119      -0.0016748291     -0.0020115182
 H       0.0001233671      -0.0006214966     -0.0001814191
 H       0.0003150250       0.0001729296     -0.0001216917
 H       0.0005882610       0.0004590845      0.0004867752
 H      -0.0002136026       0.0000672374     -0.0003453060
 H       0.0005864093       0.0000055331      0.0023712305
 O      -0.0042466122       0.0037834421     -0.0037488584
55
terachem gradient in au, energy -1895.9779655127, grad_rms 0.008988, grad_max 0.033299 on atom 1
Mn      -0.0041557684      -0.0161328002      0.0288319524
 C      -0.0029757040      -0.0041980298      0.0055655620
 N       0.0041057679      -0.0018436092     -0.0025695120
 C       0.0041075515       0.0003324961      0.0076030636
 C      -0.0053971172      -0.0053722240      0.0021522609
 C      -0.0030310099       0.0029198568      0.0009965831
 N      -0.0022761989       0.0052891674     -0.0150123083
 C      -0.0047404329      -0.0013992013     -0.0031989668
 O      -0.0091670442      -0.0008324559      0.0034584737
 C       0.0092270419      -0.0048420385     -0.0064329343
 O       0.0189079413       0.0019048173      0.0058813544
 C      -0.0054557884      -0.0093513160      0.0005284765
 C      -0.0115262419      -0.0020572124     -0.0055667643
 O       0.0040261274       0.0192116681     -0.0131213436
 C      -0.0052590982       0.0072271006      0.0073145155
 O      -0.0003995295      -0.0058738951     -0.0078157146
 C      -0.0011130658      -0.0024465507     -0.0018997437
 C      -0.0007201484       0.0003044499      0.0010359989
 C       0.0017953781       0.0013220883      0.0016366709
 C       0.0033095086       0.0013818467     -0.0001616645
 C      -0.0000409462      -0.0008340431     -0.0004496752
 C      -0.0038792239      -0.0033208299      0.0017932726
 C      -0.0044757079       0.0065149197      0.0011308068
 C       0.0139990233       0.0001133943      0.0055714842
 C       0.0044652600       0.0062993564      0.0004205007
 C      -0.0001986403      -0.0037918547     -0.0011962796
 H       0.0018120384      -0.0002382798      0.0001731363
 H       0.0000162056       0.0015607716      0.0019781443
 H       0.0009341250       0.0005693373      0.0005573713
 H      -0.0008057540      -0.0010510030      0.0015599965
 H      -0.0003540922       0.0002998506     -0.0020157019
 H       0.0010911210      -0.0001047713      0.0003505684
 H      -0.0000155098       0.0012649193      0.0000735803
 H      -0.0003608838      -0.0007749877      0.0022650025
 H      -0.0003296841      -0.0004567461     -0.0015359643
 H       0.0005925474       0.0007736696     -0.0003633188
 H      -0.0015451547       0.0001849607     -0.0009427016
 H       0.0005840010       0.0013294738     -0.0010693477
 H       0.0010442372      -0.0000495777      0.0003432531
 H      -0.0001321173      -0.0013095987     -0.0002026188
 P       0.0057355746       0.0040003221      0.0043749883
 C       0.0014809705      -0.0044006435     -0.0065912701
 C      -0.0027205837       0.0017992045      0.0022526061
 C       0.0034664064       0.0022531426      0.0009294796
 C      -0.0043446272      -0.0081635402     -0.0034527523
 C      -0.0019426121       0.0103435120     -0.0059194607
 C       0.0073732411      -0.0022614519     -0.0027018358
 H      -0.0033219456       0.0002940094     -0.0026212858
 H      -0.0001344928      -0.0035715907     -0.0035937097
 H      -0.0000453715      -0.0000856269     -0.0000445032
 H       0.0005558386      -0.0005379273      0.0001131366
 H      -0.0008553108      -0.0000128561     -0.0005132408
 H      -0.0007202684       0.0018502177     -0.0000297727
 H       0.0012301187       0.0003190829      0.0005291746
 O      -0.0074199514       0.0056510251     -0.0003990226
55
terachem gradient in au, energy -1895.9929023509, grad_rms 0.009392, grad_max 0.029317 on atom 24
Mn       0.0016972178       0.0006765357      0.0179560665
 C      -0.0037822770      -0.0029992770      0.0053366326
 N       0.0019421457      -0.0007400457     -0.0084308316
 C      -0.0043983563       0.0072210133      0.0003611631
 C      -0.0061544959      -0.0060365953     -0.0032680739
 C       0.0036590931      -0.0109773605      0.0005478517
 N      -0.0049864796       0.0006254560     -0.0095387153
 C      -0.0060601353      -0.0090990245     -0.0044535859
 O      -0.0055535409      -0.0030846376      0.0018259892
 C       0.0068344388       0.0032642879     -0.0054645238
 O       0.0147403081      -0.0090154684      0.0033635137
 C      -0.0059661811      -0.0108185125     -0.0011124017
 C      -0.0096460420      -0.0025224274     -0.0059018778
 O      -0.0052415982       0.0149036132     -0.0095487988
 C      -0.0000277934       0.0050437873      0.0083348867
 O      -0.0010767635      -0.0046899349     -0.0076533673
 C      -0.0055426619      -0.0032380972     -0.0032661506
 C       0.0020601873       0.0011526426      0.0040571126
 C       0.0000522942       0.0012127408      0.0008068668
 C       0.0007478822      -0.0014942407      0.0013331515
 C       0.0019249167       0.0040205598     -0.0025308709
 C      -0.0032457667      -0.0044405131      0.0024054305
 C      -0.0191841332       0.0194549566      0.0013595802
 C       0.0271096093       0.0055601036      0.0096762247
 C       0.0068519163       0.0134015100     -0.0009413362
 C       0.0077916479      -0.0120063470     -0.0019984530
 H       0.0025515753      -0.0002615895     -0.0023953569
 H       0.0008160624       0.0029734733      0.0019482608
 H       0.0002885344       0.0002107721      0.0011065064
 H      -0.0010794096      -0.0005878290     -0.0000857572
 H      -0.0016961228      -0.0002395830     -0.0021350285
 H       0.0006897778       0.0001734054      0.0002543640
 H      -0.0002813662       0.0008412849     -0.0000506839
 H      -0.0010489372      -0.0021970369      0.0018760822
 H      -0.0003834953      -0.0008294856     -0.0001197090
 H       0.0006065686       0.0008609542     -0.0013357603
 H      -0.0024872379       0.0011075706     -0.0019719103
 H       0.0018812806       0.0027714457     -0.0011460357
 H       0.0015240090       0.0009211735      0.0012578672
 H       0.0002022793      -0.0016309182      0.0000935620
 P       0.0036206857       0.0040474017      0.0105966827
 C      -0.0022791050      -0.0040037769     -0.0017784095
 C       0.0001532042       0.0042522959      0.0006364054
 C       0.0060246373      -0.0013671227      0.0007825131
 C      -0.0034985672      -0.0037109606     -0.0019080245
 C      -0.0014130383       0.0038454296      0.0040716638
 C       0.0040659394      -0.0011794084     -0.0009609154
 H      -0.0005742724       0.0003101897     -0.0003377061
 H      -0.0021222214      -0.0030468141     -0.0030107920
 H      -0.0003483260       0.0004606537      0.0005513646
 H       0.0004093718      -0.0004588703      0.0004839184
 H      -0.0000044775      -0.0002408169     -0.0008403206
 H      -0.0004637694       0.0002922401     -0.0001400215
 H      -0.0008617965      -0.0000559890     -0.0000232040
 O       0.0011627858       0.0013671847      0.0013249613
55
terachem gradient in au, energy -1895.9975399463, grad_rms 0.007733, grad_max 0.025484 on atom 24
Mn      -0.0066013986       0.0031388984      0.0150464486
 C       0.0071763538       0.0054456786      0.0029967918
 N       0.0046885745      -0.0032733673     -0.0032252211
 C      -0.0004200359       0.0007623199     -0.0007529407
 C      -0.0023930630      -0.0022879605     -0.0026135618
 C      -0.0038707470       0.0077486138      0.0016540052
 N       0.0022607185       0.0024999360     -0.0057342623
 C       0.0061583738       0.0060840350      0.0023382003
 O       0.0023736608      -0.0017412854      0.0016804367
 C       0.0002351778       0.0098412339     -0.0022119595
 O       0.0027140309      -0.0086720764     -0.0000223771
 C      -0.0027272496      -0.0032075281     -0.0022091200
 C      -0.0014606569      -0.0009697466     -0.0028305872
 O      -0.0029103679       0.0060777580     -0.0080717214
 C       0.0051230640      -0.0019702739      0.0042983973
 O       0.0020918513       0.0015257024     -0.0046566110
 C      -0.0016372488      -0.0008233650     -0.0001166717
 C       0.0033620384       0.0010525887      0.0037121685
 C      -0.0021300058      -0.0018187959      0.0005630096
 C      -0.0030088473      -0.0020792030      0.0015328445
 C       0.0020674245       0.0052017026     -0.0022819781
 C       0.0003470281       0.0020121454      0.0010658680
 C       0.0172570841      -0.0090567763      0.0059902929
 C      -0.0216646508      -0.0124720672     -0.0049519363
 C      -0.0085891660      -0.0102407029     -0.0022310081
 C      -0.0032525476       0.0114027931     -0.0010884603
 H       0.0010983232       0.0007562827     -0.0003445090
 H       0.0007368430       0.0022459514      0.0005573224
 H      -0.0001856451      -0.0001667581      0.0006952992
 H      -0.0003267801       0.0004435176     -0.0012307970
 H      -0.0010525867      -0.0006852011     -0.0004331597
 H      -0.0004766954      -0.0001373462      0.0000405449
 H      -0.0005242720      -0.0002583132     -0.0002656788
 H      -0.0009772885      -0.0014930250      0.0002194704
 H      -0.0001917067      -0.0001239763      0.0013733047
 H       0.0002457049       0.0005802264     -0.0013737105
 H       0.0013852681      -0.0022013771     -0.0010956009
 H      -0.0017558917      -0.0005938111     -0.0013865193
 H      -0.0008034512      -0.0007568645      0.0007212905
 H      -0.0012006397       0.0008700052      0.0004682778
 P       0.0035878726       0.0034922941      0.0038764489
 C      -0.0008691724       0.0014607199      0.0053496627
 C       0.0036031055      -0.0052651651     -0.0038152816
 C      -0.0107412807       0.0030741788     -0.0035005519
 C       0.0091188931       0.0090161249      0.0067510716
 C       0.0026927444      -0.0113747253      0.0002375238
 C      -0.0025556294       0.0020342574     -0.0019147544
 H       0.0008796835      -0.0005545623      0.0003736670
 H      -0.0021687249      -0.0012532381     -0.0005989178
 H      -0.0004641325      -0.0007078745     -0.0001427748
 H      -0.0013227755       0.0007197525      0.0001931296
 H       0.0012128598       0.0009266052      0.0001659417
 H       0.0012383186      -0.0015760780     -0.0000911051
 H      -0.0025030660       0.0002148969     -0.0024278825
 O       0.0071307273      -0.0028667549     -0.0002817597
55
terachem gradient in au, energy -1896.0017902563, grad_rms 0.015190, grad_max 0.080621 on atom 1
Mn      -0.0439460548      -0.0439427920      0.0513562232
 C       0.0048882861      -0.0087420360     -0.0000507590
 N       0.0009983518      -0.0024856872     -0.0040730464
 C       0.0007298932      -0.0100544692     -0.0008958298
 C      -0.0014116933      -0.0010649887     -0.0017540317
 C      -0.0056402699      -0.0006459201     -0.0008228973
 N      -0.0050558458       0.0043806570     -0.0076665880
 C      -0.0068116556       0.0062227290      0.0003167265
 O       0.0003253996       0.0008534390      0.0013683629
 C      -0.0033251844       0.0037157134     -0.0021139636
 O       0.0058051578       0.0458956321      0.0028846735
 C       0.0001259879       0.0047057924     -0.0018094769
 C       0.0050694723       0.0008182421     -0.0012213232
 O       0.0412684021       0.0081324258     -0.0039865747
 C       0.0049805760      -0.0028622558      0.0040515025
 O       0.0011124844       0.0011679077     -0.0048638749
 C       0.0002724354       0.0000999539      0.0013975981
 C       0.0012886762       0.0004591940      0.0013511576
 C      -0.0009335728      -0.0008998008      0.0020353866
 C       0.0010084392       0.0006208174      0.0013883146
 C       0.0006222837       0.0012124433     -0.0013386639
 C       0.0003234430      -0.0006306411     -0.0001943449
 C       0.0044682989      -0.0036281783      0.0010635093
 C      -0.0067555117      -0.0026971006     -0.0014200064
 C      -0.0036992005      -0.0058384661     -0.0030845062
 C      -0.0016851741       0.0043079377      0.0011524341
 H       0.0008817458       0.0002129393     -0.0000634399
 H       0.0004323343       0.0002043191      0.0002590984
 H       0.0000087023      -0.0000549674      0.0000980280
 H      -0.0000881432       0.0001794693     -0.0004231543
 H      -0.0001784849      -0.0002262083     -0.0002501322
 H      -0.0002145736      -0.0002227899      0.0002102314
 H       0.0000581538      -0.0001354273     -0.0002819000
 H      -0.0003072466      -0.0006904457      0.0005352530
 H      -0.0000559327       0.0001418789      0.0007182595
 H      -0.0002445220      -0.0003339788     -0.0007104713
 H       0.0006219800      -0.0006394185     -0.0004866991
 H      -0.0005551459      -0.0002533621     -0.0001844317
 H      -0.0002653686      -0.0006039708     -0.0000539669
 H      -0.0004831521       0.0001092406      0.0003977931
 P       0.0063834423       0.0056758672     -0.0338063900
 C      -0.0023859431      -0.0005309928      0.0007623416
 C      -0.0007014826       0.0032594076      0.0006312179
 C       0.0073974442      -0.0024974565      0.0018489431
 C      -0.0065567467      -0.0059934069     -0.0039551963
 C      -0.0015323735       0.0057207720      0.0020931117
 C       0.0022498323      -0.0002952013      0.0010208324
 H      -0.0000475054       0.0000353740     -0.0005850240
 H       0.0001283147      -0.0004058445     -0.0002797130
 H       0.0003003306       0.0006317877      0.0005246758
 H       0.0007467297      -0.0006609466     -0.0001020982
 H      -0.0005772578      -0.0008057326     -0.0003596568
 H      -0.0005792546       0.0004966007     -0.0001309639
 H       0.0002992007       0.0002790146     -0.0000268398
 O       0.0012414985      -0.0016970710     -0.0004697103
55
terachem gradient in au, energy -1895.9594291056, grad_rms 0.020468, grad_max 0.063346 on atom 45
Mn       0.0086564014      -0.0096259758      0.0056039042
 C      -0.0274715084      -0.0101180531     -0.0014663672
 N      -0.0105995432       0.0248863526     -0.0064666086
 C       0.0104300902       0.0002776129      0.0045904645
 C       0.0006360342       0.0008782391      0.0043708625
 C       0.0230192695      -0.0245504240     -0.0012813471
 N      -0.0003248987       0.0080013622      0.0046178874
 C      -0.0110836192      -0.0147976158     -0.0007228504
 O      -0.0072509675       0.0032241928     -0.0030281713
 C      -0.0050520905      -0.0219476721     -0.0044727389
 O       0.0080057611      -0.0038965068     -0.0005385251
 C      -0.0063766818       0.0009453860     -0.0053850372
 C       0.0019388707      -0.0123758610     -0.0061922572
 O      -0.0128084141       0.0092571001     -0.0078550839
 C      -0.0120005913       0.0024946594      0.0025127527
 O      -0.0045502964      -0.0021457361     -0.0029471720
 C       0.0020224969       0.0010546225      0.0039173762
 C      -0.0038497520      -0.0007672170     -0.0036226592
 C       0.0028299347       0.0027398821      0.0065985428
 C       0.0121940620       0.0067234212      0.0030560184
 C      -0.0029611738      -0.0085275761     -0.0009448302
 C      -0.0016952651      -0.0105253153     -0.0030651177
 C      -0.0471880184       0.0346841212     -0.0091256542
 C       0.0487492276       0.0181986976      0.0147948750
 C       0.0130630218       0.0208855771     -0.0016821223
 C       0.0133897461      -0.0289904477      0.0021090883
 H       0.0009465483      -0.0014327856      0.0031211539
 H       0.0000591536      -0.0042671474      0.0003214374
 H       0.0013224196       0.0010958522     -0.0008357551
 H       0.0003241349      -0.0007703847      0.0019535009
 H       0.0017657569       0.0013167195     -0.0008840662
 H       0.0016752779      -0.0004139165      0.0011758244
 H       0.0015157229       0.0013347731     -0.0004939273
 H       0.0008686800       0.0005716401      0.0027555652
 H       0.0002568543       0.0008700095     -0.0011684554
 H      -0.0006775298      -0.0017437256      0.0006788659
 H      -0.0040309244       0.0051844416      0.0020060151
 H       0.0031071727       0.0014377384      0.0031253440
 H       0.0023109947       0.0008545595     -0.0017610276
 H       0.0023873697      -0.0037008318     -0.0009534288
 P      -0.0006738480      -0.0034973168      0.0112872248
 C      -0.0040185468      -0.0044570890     -0.0130485942
 C      -0.0119786673       0.0216686258      0.0103254361
 C       0.0425985993      -0.0006018653      0.0039871626
 C      -0.0350226224      -0.0477634957     -0.0224659416
 C      -0.0149003154       0.0364475793      0.0046191104
 C       0.0175381908      -0.0034574078      0.0057119959
 H      -0.0035442783       0.0013731999     -0.0037504975
 H       0.0052001279       0.0002758811     -0.0020904814
 H       0.0016604166       0.0035033700      0.0000611581
 H       0.0049520217      -0.0017877640     -0.0013982370
 H      -0.0041030788      -0.0057301859     -0.0003316194
 H      -0.0048511175       0.0039530961      0.0004286515