60
terachem gradient in au, energy -1347.4313590832, grad_rms 0.023086, grad_max 0.068964 on atom 1
Mn      -0.0284251013      -0.0269398081      0.0567655308
 C       0.0355215035       0.0043434637     -0.0053727521
 N      -0.0105013924       0.0273295200     -0.0078574194
 C      -0.0354949161       0.0082649376      0.0019576443
 C       0.0119460073       0.0127603027      0.0018897978
 C       0.0028663007      -0.0396452710     -0.0062218665
 N       0.0260808934       0.0001396786     -0.0029001694
 C       0.0125661610       0.0276708865      0.0029783511
 C       0.0010140366       0.0003635874     -0.0067769650
 C      -0.0080359474       0.0177366320     -0.0091059644
 N       0.0246136392       0.0207300828      0.0038060908
 C       0.0127710336       0.0024111629     -0.0283771561
 C       0.0031153341       0.0275615966      0.0061561892
 N       0.0236590423       0.0100223917      0.0111669947
 C       0.0215844107      -0.0124684134     -0.0017245054
 C      -0.0021809347       0.0043711933     -0.0007888195
 C      -0.0001219517      -0.0066128915      0.0242079255
 C      -0.0057525870       0.0052419787      0.0178632497
 C      -0.0214705514       0.0130015577     -0.0006975748
 C      -0.0223239694      -0.0182734838     -0.0012536397
 C      -0.0178974506      -0.0212012441     -0.0029161979
 C       0.0190717149      -0.0190990879     -0.0047816980
 H       0.0002986328      -0.0009914920      0.0092391744
 H      -0.0010750865       0.0012428473     -0.0077246034
 H       0.0051708454      -0.0028500373      0.0075665311
 H       0.0083816518       0.0027744508     -0.0059401360
 H       0.0006601937      -0.0051140972      0.0080807080
 H       0.0035803857      -0.0081613700      0.0028323155
 H      -0.0081642610       0.0022593925      0.0089397206
 H      -0.0026915143      -0.0075745392      0.0054354878
 H      -0.0115351259      -0.0049623402      0.0004492461
 H      -0.0024228333      -0.0158088701     -0.0053662231
 H      -0.0091157281       0.0009684720      0.0017805979
 H      -0.0084172178       0.0030989057      0.0032163492
 H       0.0021266238       0.0092530856     -0.0078961248
 H      -0.0042863213       0.0032920826      0.0066850673
 H      -0.0053089076      -0.0036018203     -0.0150619820
 H       0.0038228495       0.0112253057     -0.0100899190
 H      -0.0076821498      -0.0016461475     -0.0091916520
 H       0.0068937706      -0.0029274739     -0.0111012058
 H      -0.0042231556      -0.0031351455     -0.0093838781
 H      -0.0048317593      -0.0081986889     -0.0063101876
 H       0.0007543462       0.0031351210      0.0007281781
 H       0.0011502432      -0.0026905404      0.0001093509
 H      -0.0031936440       0.0008522952      0.0012315847
 H       0.0027972899       0.0008902527      0.0006212212
 N      -0.0265890528       0.0197986186      0.0064420530
 H      -0.0044233421       0.0001430499     -0.0077923451
 C       0.0416591230      -0.0193994130      0.0298255330
 C      -0.0070473054       0.0017444170     -0.0154457276
 C       0.0064017315      -0.0021287131      0.0110699095
 C      -0.0048482956       0.0021717847     -0.0038691871
 C       0.0111192429      -0.0040552212      0.0017641308
 C      -0.0057015091       0.0024670543     -0.0167487575
 H       0.0035172324      -0.0012483074      0.0028415742
 H       0.0021889793      -0.0012494124     -0.0022157280
 H      -0.0013585035       0.0001551533     -0.0027838694
 H      -0.0018023027       0.0004077614      0.0023021518
 H      -0.0052708390       0.0008786628      0.0264339042
 O      -0.0131395628      -0.0087238572     -0.0486903078
60
terachem gradient in au, energy -1347.4648454382, grad_rms 0.011260, grad_max 0.047008 on atom 1
Mn      -0.0259833931      -0.0268318159      0.0285428703
 C       0.0073063357      -0.0081912077     -0.0052040127
 N      -0.0020226550       0.0125637156     -0.0092459983
 C      -0.0040777149      -0.0019409881      0.0021948023
 C       0.0060751752       0.0060361215      0.0019205716
 C      -0.0015508568      -0.0107515608     -0.0029003495
 N       0.0062740505       0.0003945978     -0.0012235473
 C      -0.0032264515       0.0065027632      0.0061264639
 C      -0.0018307329      -0.0040568831     -0.0044524798
 C      -0.0051498538       0.0105944661     -0.0076280884
 N       0.0216812526       0.0124922828     -0.0012698611
 C       0.0091423782       0.0009663117     -0.0215156741
 C       0.0007001966       0.0177741174      0.0041514726
 N       0.0146273435       0.0091802963      0.0031756874
 C       0.0124685124      -0.0059130959     -0.0056288931
 C      -0.0063677302       0.0016225747     -0.0003037763
 C      -0.0011728581      -0.0027121709      0.0126822054
 C      -0.0037874269       0.0010391040      0.0110952779
 C      -0.0036223465       0.0041385215     -0.0016374994
 C       0.0046891106       0.0009989340      0.0009574525
 C      -0.0007239219      -0.0000567501     -0.0005652447
 C       0.0027944751       0.0004923267     -0.0028781543
 H      -0.0013498311      -0.0024310123      0.0034402852
 H      -0.0020673900      -0.0010534742     -0.0037338796
 H       0.0001111067      -0.0003108201      0.0039482070
 H       0.0044528464       0.0016626995     -0.0019950966
 H       0.0001836140      -0.0043077290      0.0031466923
 H       0.0019448640      -0.0026238591      0.0024343504
 H      -0.0063016307       0.0011038652      0.0031435263
 H      -0.0012642829      -0.0016206018      0.0042580744
 H      -0.0047272921      -0.0035499942     -0.0026198098
 H      -0.0004306793      -0.0075883570     -0.0000249412
 H      -0.0064659147       0.0006213873      0.0014719230
 H      -0.0029640815       0.0021098639      0.0023841476
 H       0.0020709485       0.0040051507     -0.0022129409
 H      -0.0010332503      -0.0001366080      0.0024715261
 H      -0.0036696425      -0.0013211550     -0.0053988036
 H       0.0010059145       0.0021114760     -0.0034184869
 H      -0.0025360274      -0.0012725149     -0.0035240671
 H       0.0021162242      -0.0020864402     -0.0033256738
 H      -0.0014782482      -0.0017121494     -0.0033620113
 H      -0.0022545624      -0.0023115305     -0.0022051003
 H       0.0007147369       0.0017071795      0.0004317973
 H       0.0014839529      -0.0008138649      0.0003260765
 H      -0.0012230067       0.0008754186      0.0011483043
 H       0.0011561224       0.0007029838      0.0005515962
 N      -0.0033015555       0.0074965027      0.0091334989
 H       0.0014319119      -0.0013971894      0.0019868412
 C       0.0097730058      -0.0052422952      0.0149757956
 C       0.0015388263      -0.0010879966     -0.0058876976
 C       0.0023694017      -0.0009317562      0.0016292907
 C       0.0023473851      -0.0005977474      0.0040720906
 C      -0.0038342219       0.0027369488      0.0022703717
 C      -0.0104626991       0.0040677260     -0.0148436300
 H       0.0019171795      -0.0005302015      0.0017945457
 H       0.0013032460      -0.0005737201     -0.0004821042
 H       0.0001346923      -0.0002782352      0.0003384048
 H      -0.0016153993       0.0001572220      0.0011161090
 H       0.0012686574      -0.0036217952     -0.0014438878
 O      -0.0065878099      -0.0062990378     -0.0183885492
60
terachem gradient in au, energy -1347.4711314714, grad_rms 0.009585, grad_max 0.040971 on atom 1
Mn      -0.0269498085      -0.0255656432      0.0172846358
 C       0.0021998349      -0.0076937106     -0.0048696799
 N       0.0009691573       0.0075530965     -0.0095347978
 C       0.0017424970      -0.0040063440      0.0022219373
 C       0.0045736392       0.0044509487      0.0020693273
 C      -0.0042541394      -0.0018261987     -0.0012700733
 N       0.0033923013       0.0052530824     -0.0070580338
 C      -0.0028298483       0.0017802161      0.0004303402
 C      -0.0020409704      -0.0051698175     -0.0048418563
 C      -0.0052922459       0.0073485676     -0.0061696255
 N       0.0207998878       0.0108348391     -0.0039640073
 C       0.0065087626       0.0012597213     -0.0194219154
 C       0.0007978956       0.0144604465      0.0040668850
 N       0.0126899769       0.0083764517      0.0005478242
 C       0.0102998412      -0.0043566839     -0.0059654242
 C      -0.0067649408       0.0006662350      0.0003014744
 C      -0.0011632715      -0.0019669823      0.0089443940
 C      -0.0029290103      -0.0002944790      0.0080809776
 C       0.0024157426      -0.0004778377     -0.0029276852
 C       0.0049255994       0.0016648267      0.0013850032
 C       0.0010948557       0.0029520152     -0.0002180213
 C      -0.0008369145       0.0048031100     -0.0023896672
 H      -0.0015863275      -0.0026732190      0.0018567952
 H      -0.0022768795      -0.0014470904     -0.0026846620
 H      -0.0009900935       0.0005422765      0.0031501218
 H       0.0034873047       0.0017064334     -0.0008795149
 H      -0.0001376559      -0.0050483157      0.0007247879
 H       0.0019175809      -0.0011684796      0.0022164528
 H      -0.0057755327       0.0007784949      0.0016201430
 H      -0.0006079214      -0.0001943650      0.0039739736
 H      -0.0030371257      -0.0031592771     -0.0033309538
 H       0.0000208967      -0.0054378423      0.0014691970
 H      -0.0054265772       0.0008573782      0.0020251783
 H      -0.0013881956       0.0018915389      0.0021328500
 H       0.0022164879       0.0027538915     -0.0008162614
 H       0.0001139273      -0.0008799506      0.0013381460
 H      -0.0035722012      -0.0004261571     -0.0026673584
 H       0.0002760626      -0.0002453810     -0.0015284677
 H      -0.0010029897      -0.0010809747     -0.0021648012
 H       0.0005700073      -0.0018721403     -0.0011523210
 H      -0.0005772363      -0.0015154903     -0.0018471262
 H      -0.0015899240      -0.0006291777     -0.0012398087
 H       0.0008717450       0.0008747995      0.0004020335
 H       0.0007617230      -0.0008620551      0.0003040155
 H      -0.0008625908       0.0006431985      0.0011230799
 H       0.0007403356       0.0006553120      0.0004908365
 N      -0.0002706731       0.0076311323      0.0211517328
 H      -0.0011210868      -0.0006283342      0.0007667975
 C       0.0115621362      -0.0072599039      0.0074720480
 C      -0.0042499376       0.0014292780     -0.0085837116
 C       0.0005204815      -0.0000989055      0.0004876777
 C       0.0000544767       0.0001687769      0.0005903833
 C       0.0005715778       0.0004628619     -0.0001710780
 C      -0.0039199857       0.0025896183     -0.0048195064
 H       0.0003066712       0.0000937447      0.0017866638
 H       0.0001154306      -0.0000732780     -0.0002421630
 H       0.0001275958      -0.0001572821      0.0000916246
 H      -0.0003344242      -0.0003780836      0.0001147662
 H       0.0009262098      -0.0025391278      0.0053309207
 O      -0.0057821354      -0.0053497630     -0.0051945045
60
terachem gradient in au, energy -1347.4828821835, grad_rms 0.007523, grad_max 0.026490 on atom 49
Mn      -0.0154619262      -0.0090537487      0.0112531336
 C       0.0005233505      -0.0006682753     -0.0038599424
 N       0.0042939812      -0.0056403376     -0.0040331506
 C       0.0034607706      -0.0049388944      0.0036122227
 C      -0.0014687700      -0.0016991915      0.0005135133
 C      -0.0059901245       0.0092974743      0.0043756398
 N       0.0022214025       0.0026813148     -0.0056776796
 C      -0.0045251198       0.0014363867     -0.0000915441
 C      -0.0002564942      -0.0024890073     -0.0018154841
 C      -0.0015688170      -0.0002066170     -0.0025180184
 N       0.0104262802       0.0047117494     -0.0039537051
 C       0.0000925364       0.0002003842     -0.0040248878
 C       0.0010537916       0.0004964789      0.0014296152
 N       0.0036158301       0.0056427926     -0.0037213963
 C       0.0013771983       0.0006084287     -0.0015161621
 C      -0.0023214697      -0.0008534914      0.0008250047
 C      -0.0015503978       0.0009608347     -0.0036200118
 C      -0.0012482776      -0.0025819179     -0.0023502637
 C       0.0113305470      -0.0032797210     -0.0004810937
 C      -0.0012691328      -0.0038083177     -0.0022496628
 C      -0.0011699962       0.0049660058     -0.0016695507
 C      -0.0013908255       0.0067910976      0.0017005710
 H      -0.0009347510      -0.0008312766     -0.0010353721
 H      -0.0004255131      -0.0003040858      0.0007757404
 H      -0.0012038971       0.0014801282      0.0005714167
 H      -0.0001191392      -0.0000222813      0.0016897744
 H      -0.0005316898      -0.0022537907     -0.0010909237
 H       0.0000594511       0.0009243276      0.0000447931
 H      -0.0004313006      -0.0005708367     -0.0008437751
 H       0.0003866075       0.0012950581      0.0023409278
 H       0.0007892354      -0.0009741055     -0.0015400508
 H      -0.0002594843       0.0012961921      0.0020314820
 H       0.0013083404       0.0003106913      0.0000884808
 H       0.0006554331      -0.0002806074     -0.0001892958
 H       0.0007686039      -0.0007381167      0.0020490497
 H       0.0020422598      -0.0009115228     -0.0004596350
 H      -0.0007563507       0.0005622945      0.0021427344
 H      -0.0002308620      -0.0023104493      0.0006863125
 H       0.0013978046      -0.0000106107      0.0012659163
 H      -0.0011874373      -0.0011121182      0.0016284688
 H       0.0013542806       0.0002204778      0.0009846228
 H      -0.0000958658       0.0016341607      0.0007700761
 H       0.0005042462      -0.0007640100      0.0001181060
 H      -0.0010580467      -0.0006672240     -0.0003924258
 H      -0.0001041993      -0.0000552426     -0.0001782217
 H       0.0000679886       0.0000942418      0.0003377363
 N       0.0095985470       0.0053856433      0.0043999216
 H      -0.0028585246       0.0002080250     -0.0041767254
 C      -0.0164907178       0.0004333637     -0.0207265455
 C       0.0073739159      -0.0014775649      0.0079786874
 C      -0.0043928262       0.0015197465      0.0021507870
 C      -0.0050241058       0.0013703569     -0.0080398933
 C       0.0154031873      -0.0044240538     -0.0032540410
 C      -0.0088083246       0.0025893854      0.0169453052
 H       0.0002417692       0.0000594659     -0.0002729117
 H      -0.0010248494       0.0004791434      0.0009056233
 H       0.0003369206       0.0001377211     -0.0015429598
 H       0.0025502517      -0.0005995225     -0.0000187259
 H       0.0020359222       0.0014835856     -0.0023045906
 O      -0.0011112170      -0.0057500174      0.0140329862
60
terachem gradient in au, energy -1347.4848697836, grad_rms 0.007296, grad_max 0.029366 on atom 53
Mn      -0.0090546493      -0.0096377882      0.0185976604
 C      -0.0027807098       0.0007370169     -0.0033049052
 N       0.0047083290       0.0001340054     -0.0024463051
 C      -0.0001830601      -0.0010883732      0.0018344814
 C      -0.0026843704      -0.0031166136     -0.0010153823
 C       0.0010546907      -0.0006668880      0.0019098770
 N       0.0033295925       0.0002549723     -0.0080021253
 C      -0.0053528923      -0.0009314367     -0.0016259279
 C       0.0014052936       0.0007303063      0.0007930352
 C       0.0006028599      -0.0031016075      0.0000127396
 N       0.0020828188       0.0011152961     -0.0014761118
 C      -0.0017368349       0.0008206585      0.0034870178
 C       0.0009767784      -0.0060392890     -0.0006535004
 N       0.0004853614       0.0019778193     -0.0041094495
 C      -0.0042335246       0.0009763032      0.0018036861
 C       0.0010298189       0.0001326041      0.0006092091
 C      -0.0013007508       0.0020347352     -0.0055024069
 C      -0.0012397725      -0.0016918456     -0.0053205655
 C      -0.0026220671       0.0063143705      0.0017097385
 C       0.0058688676      -0.0008906679     -0.0014926357
 C      -0.0008754842       0.0026698828     -0.0004124116
 C       0.0028468039      -0.0026851505      0.0003376511
 H       0.0001813040       0.0003077100     -0.0009574687
 H       0.0014766327       0.0008178801      0.0019737251
 H       0.0000474566       0.0009467166     -0.0003047352
 H      -0.0013416342      -0.0012566100      0.0015703675
 H       0.0003009306       0.0014553702      0.0009354847
 H      -0.0010806274       0.0005312259     -0.0013490166
 H       0.0029950371      -0.0004254085     -0.0003710463
 H       0.0000417157       0.0006803660      0.0010165520
 H       0.0013403289       0.0006957284      0.0009039145
 H      -0.0006431923       0.0028176418      0.0002090963
 H       0.0014703705       0.0001471361     -0.0012706194
 H       0.0007514640      -0.0012027105     -0.0006884025
 H      -0.0010111164      -0.0012829986      0.0011564727
 H       0.0008219846      -0.0004062185     -0.0001365917
 H       0.0007325292      -0.0000290874      0.0021300372
 H       0.0003517625      -0.0003333190      0.0009455115
 H       0.0010069389       0.0006909793      0.0017663230
 H      -0.0004553692      -0.0004433133      0.0014127052
 H       0.0014421113       0.0012033135      0.0009955691
 H       0.0000222987       0.0009851289      0.0012849918
 H      -0.0011387456       0.0001121279     -0.0000979953
 H       0.0000742510       0.0007907256     -0.0002108575
 H       0.0006873026      -0.0003184918     -0.0006468617
 H       0.0000658141      -0.0007877941     -0.0002509338
 N       0.0038176226       0.0041861409      0.0001412959
 H       0.0001971799      -0.0015310929     -0.0000271987
 C      -0.0021655705      -0.0031536003     -0.0057154790
 C      -0.0033169495       0.0016052280      0.0025437995
 C       0.0030069991      -0.0005225361     -0.0092410916
 C       0.0113150095      -0.0033986324      0.0162994330
 C      -0.0283502699       0.0075810912     -0.0010642079
 C       0.0197394001      -0.0063094196     -0.0118830988
 H      -0.0010813313       0.0004270855     -0.0010547900
 H       0.0014819061      -0.0002109300     -0.0001805618
 H      -0.0000052397       0.0002051878      0.0028341467
 H      -0.0029895869       0.0011126335     -0.0004069847
 H      -0.0015850916       0.0017149823     -0.0027097537
 O      -0.0005307246       0.0045494551      0.0047149015
60
terachem gradient in au, energy -1347.4894312286, grad_rms 0.003765, grad_max 0.018077 on atom 1
Mn      -0.0090534583      -0.0076953872      0.0136226411
 C      -0.0020226671      -0.0004758162     -0.0031872708
 N       0.0039635653       0.0049780645     -0.0005922058
 C       0.0001568538       0.0000692380     -0.0005191691
 C      -0.0011697739      -0.0015633773     -0.0015163281
 C       0.0005786153      -0.0015661191     -0.0006032602
 N       0.0041599549      -0.0000925217     -0.0032064610
 C      -0.0029939678      -0.0001800335     -0.0000591635
 C       0.0008239799       0.0011577312      0.0013446409
 C       0.0010357913      -0.0013930207      0.0004931707
 N       0.0013379619       0.0000563301     -0.0011081042
 C      -0.0008614495       0.0009497208      0.0016094981
 C       0.0000114251      -0.0039008028     -0.0005947519
 N       0.0011330980       0.0014842044     -0.0032507535
 C      -0.0037578831       0.0004012106      0.0007364134
 C       0.0006419407       0.0008076217      0.0008479334
 C      -0.0006400435       0.0008444351     -0.0022146667
 C      -0.0012853666      -0.0006853150     -0.0021697286
 C      -0.0023160815       0.0042896150      0.0009741547
 C       0.0034416335      -0.0009721332      0.0000227892
 C      -0.0008162394      -0.0005588756      0.0005413834
 C       0.0017359531      -0.0020066641     -0.0007990540
 H       0.0002429854       0.0001078717      0.0003785736
 H       0.0013291733       0.0010839747      0.0012220942
 H       0.0002783739       0.0003365054     -0.0000525217
 H      -0.0002286365      -0.0011041301      0.0002208626
 H       0.0004467020       0.0012255988      0.0011590578
 H      -0.0007245987       0.0001148869     -0.0009499644
 H       0.0013163657      -0.0006646524      0.0000005963
 H      -0.0003518470       0.0000192564      0.0007465452
 H       0.0004143502       0.0007244411      0.0010701561
 H      -0.0001580339       0.0007955637     -0.0005007469
 H      -0.0009934211       0.0000147311     -0.0006884125
 H       0.0004804987      -0.0006924616      0.0000755533
 H      -0.0010656475      -0.0000672628      0.0000096811
 H      -0.0001872781      -0.0002186902      0.0004112596
 H       0.0004532825      -0.0003713555      0.0006281533
 H       0.0003820883       0.0004410077      0.0006282333
 H       0.0001488357       0.0005461322      0.0006675746
 H       0.0002818067      -0.0003679730      0.0004257635
 H       0.0005479131       0.0010130766      0.0002510745
 H      -0.0003875112       0.0001522004      0.0005548807
 H      -0.0006071343       0.0000212348     -0.0004174087
 H       0.0002512710       0.0006123003      0.0000271979
 H       0.0004937857      -0.0003435555     -0.0002758936
 H      -0.0002146733      -0.0003042863     -0.0003796918
 N      -0.0010079042       0.0041429031      0.0025790252
 H       0.0022698546      -0.0023216386      0.0029452336
 C       0.0035969212      -0.0025707020      0.0010188869
 C      -0.0053725780       0.0014702807     -0.0014003548
 C      -0.0005574631       0.0001645993      0.0023901378
 C      -0.0031735744       0.0011788563     -0.0066882173
 C       0.0056201866      -0.0017548296      0.0006761732
 C       0.0040767561      -0.0019356770      0.0014693041
 H      -0.0006306872       0.0002567309     -0.0001940316
 H      -0.0007346643       0.0004017883     -0.0001981139
 H      -0.0002599645       0.0001754682     -0.0008736370
 H       0.0008268333      -0.0002420328     -0.0005848690
 H      -0.0009542026       0.0001719753     -0.0004246891
 O       0.0000479934       0.0038397588     -0.0062991758
60
terachem gradient in au, energy -1347.4901298724, grad_rms 0.003454, grad_max 0.012753 on atom 1
Mn      -0.0095687333      -0.0013964305      0.0083140277
 C       0.0023611475       0.0015945848     -0.0025388778
 N       0.0013796949      -0.0016459521      0.0041554205
 C      -0.0006567636      -0.0005245807     -0.0014223579
 C       0.0000625099       0.0000326461     -0.0007181143
 C      -0.0030285811       0.0022286685     -0.0010236265
 N       0.0022252160       0.0016612292     -0.0029678345
 C       0.0015016269       0.0025638331     -0.0013081347
 C      -0.0007924417       0.0005160807      0.0001102576
 C       0.0001622551       0.0002160260      0.0010553611
 N       0.0022718769      -0.0000398595     -0.0029452244
 C      -0.0005573416       0.0010924533     -0.0017120260
 C      -0.0003762449      -0.0002774786     -0.0000199060
 N       0.0010734339       0.0011213801     -0.0005936797
 C       0.0003036127       0.0003101078     -0.0003471203
 C       0.0000458449      -0.0001489580      0.0010504072
 C       0.0003898848      -0.0010783505      0.0006087678
 C      -0.0004522901      -0.0000943732      0.0012788002
 C       0.0051410901      -0.0031831299     -0.0004860711
 C      -0.0047548512      -0.0034903008     -0.0000825795
 C      -0.0017615423      -0.0017715376     -0.0001434463
 C      -0.0014345659       0.0030343899      0.0003627036
 H      -0.0001685633      -0.0002979531      0.0011838167
 H       0.0003985311       0.0007177734      0.0004240074
 H      -0.0000288640      -0.0001530796      0.0004046630
 H       0.0006270125      -0.0004082034     -0.0008477391
 H       0.0000321607      -0.0011511301     -0.0011349109
 H       0.0000306616       0.0000393824     -0.0003031549
 H      -0.0008144129      -0.0003923384     -0.0003575942
 H      -0.0002694183      -0.0004764326      0.0006569828
 H      -0.0001233645       0.0002378695      0.0004641613
 H       0.0001963785      -0.0009011269     -0.0002704368
 H      -0.0002822362       0.0002422662      0.0007629998
 H       0.0000346895       0.0001028227     -0.0000731054
 H      -0.0003613561       0.0008709493     -0.0000277953
 H       0.0000706977       0.0000827400      0.0005905738
 H      -0.0003243183      -0.0001253050     -0.0004885928
 H       0.0000837806      -0.0000662452     -0.0000639715
 H      -0.0004402652       0.0000762665     -0.0001675010
 H       0.0009146807      -0.0004444947     -0.0001231163
 H       0.0002385950       0.0004257427     -0.0003131298
 H      -0.0006293818      -0.0003044457     -0.0003478557
 H       0.0006495581      -0.0006578309     -0.0004279344
 H      -0.0004274390      -0.0003046110     -0.0001525944
 H      -0.0001314973       0.0000007759     -0.0001518845
 H      -0.0003845377       0.0005929365     -0.0000701644
 N       0.0010443012       0.0058928084     -0.0076944785
 H      -0.0008297389      -0.0010023684     -0.0014144092
 C      -0.0038752681       0.0013023828      0.0040161621
 C       0.0077598522      -0.0031182120      0.0031828076
 C      -0.0001312978      -0.0000608631      0.0003227822
 C       0.0011493311      -0.0002852270      0.0022015723
 C      -0.0000597347       0.0000595306      0.0000735244
 C      -0.0048334646       0.0027271388      0.0033394470
 H       0.0012309058      -0.0003889129     -0.0003531463
 H       0.0009164805      -0.0001990705      0.0003204500
 H       0.0003198778      -0.0000799041      0.0001726420
 H       0.0000572868      -0.0001249876      0.0005233720
 H      -0.0007917860      -0.0002074226      0.0012060486
 O       0.0056173268      -0.0029416701     -0.0056892447
60
terachem gradient in au, energy -1347.4925282218, grad_rms 0.001732, grad_max 0.006359 on atom 1
Mn      -0.0061594421      -0.0011177753      0.0011157158
 C       0.0003450916       0.0023327246     -0.0022044472
 N       0.0019044116      -0.0036657964      0.0036448656
 C      -0.0017111336      -0.0015371851     -0.0015010129
 C      -0.0007639360      -0.0011004792      0.0001040714
 C      -0.0000509837       0.0007848813     -0.0008678643
 N       0.0004195187      -0.0016781414     -0.0002854182
 C      -0.0021294690       0.0015356197     -0.0012229276
 C      -0.0003826149       0.0003103989      0.0001433358
 C       0.0006914987       0.0000734834      0.0009226865
 N      -0.0002794797      -0.0002828927     -0.0015347196
 C      -0.0003057819       0.0005068889     -0.0003289590
 C      -0.0004137513      -0.0009157722     -0.0001872319
 N       0.0003339162       0.0003133836     -0.0008364345
 C       0.0000759474       0.0001710951     -0.0000975025
 C       0.0002980523      -0.0008685799      0.0007709517
 C       0.0005837714      -0.0004470837      0.0000262010
 C      -0.0000755077       0.0004689719      0.0002377267
 C       0.0018415272       0.0006190280      0.0010178267
 C      -0.0001356786      -0.0007929573     -0.0006496442
 C      -0.0005638805       0.0016691401     -0.0002880032
 C      -0.0001940834       0.0003923547      0.0005126657
 H      -0.0002617118      -0.0003227558      0.0007666819
 H       0.0002565640       0.0006071491      0.0007240275
 H      -0.0001138842      -0.0000747986      0.0001121274
 H       0.0004436336      -0.0004149177     -0.0001249243
 H      -0.0000006416      -0.0001139423     -0.0005706659
 H       0.0000777057       0.0001954093     -0.0002497739
 H      -0.0000182819       0.0000909298     -0.0001953895
 H      -0.0000319601      -0.0001708706      0.0001486870
 H       0.0003382398       0.0002826280      0.0004093832
 H       0.0001684095      -0.0001027146      0.0001097931
 H       0.0003211075       0.0000823315      0.0002704231
 H       0.0001708818       0.0001654394     -0.0003953308
 H      -0.0000819617       0.0005331361      0.0002538734
 H       0.0003288335      -0.0000250172      0.0002988295
 H      -0.0003326874       0.0001374692      0.0000020623
 H      -0.0000912495      -0.0001899600     -0.0001469398
 H      -0.0001187115       0.0000966409     -0.0000560783
 H      -0.0000112897      -0.0004006073      0.0001144647
 H       0.0004529126       0.0003137239     -0.0000681860
 H      -0.0005057456       0.0000209027     -0.0000230676
 H       0.0001260468      -0.0001545720     -0.0002829957
 H      -0.0000564521       0.0000107089     -0.0002065282
 H       0.0000648138       0.0002717271     -0.0003815798
 H       0.0000535697       0.0001060312     -0.0000047920
 N       0.0036161812       0.0040356790     -0.0006445874
 H      -0.0014769150      -0.0001719378     -0.0020334245
 C       0.0005120579      -0.0011038513      0.0016776422
 C       0.0001410746      -0.0003571812     -0.0001338039
 C       0.0004903035      -0.0001868073     -0.0004515169
 C      -0.0000113657       0.0000638421      0.0000502674
 C       0.0006743935      -0.0002390176     -0.0001246019
 C      -0.0007697249       0.0009933809      0.0007671176
 H       0.0000352730      -0.0000065711      0.0000879760
 H       0.0001878125      -0.0000304698     -0.0000671940
 H       0.0001912734      -0.0000307732     -0.0000559762
 H       0.0001379485      -0.0000665655      0.0000802840
 H      -0.0000618224      -0.0001077218     -0.0004184639
 O       0.0018273757      -0.0005073829      0.0022702993
60
terachem gradient in au, energy -1347.4935798361, grad_rms 0.001766, grad_max 0.006537 on atom 1
Mn      -0.0058170163      -0.0023687082     -0.0018135242
 C      -0.0026971794       0.0006675948     -0.0015650807
 N       0.0019211914       0.0007551972      0.0041327540
 C      -0.0005626157      -0.0006498582     -0.0031859379
 C       0.0001737321      -0.0004121176      0.0012556736
 C       0.0006565132       0.0009752480     -0.0017302002
 N       0.0001162204      -0.0025452174      0.0008886368
 C      -0.0018798863       0.0008870026     -0.0011492537
 C      -0.0000919479       0.0004132546      0.0001117682
 C       0.0006742529       0.0004992280      0.0004175852
 N      -0.0018568653       0.0003006303      0.0004109262
 C       0.0004283766       0.0004615619      0.0005772017
 C      -0.0004886630      -0.0006307908     -0.0003521435