46
terachem gradient in au, energy -3188.2024455211, grad_rms 0.050253, grad_max 0.143445 on atom 11
Mn       0.0308712070       0.0218743539     -0.0404517512
 C       0.0309215271       0.0288868496     -0.0566850397
 P      -0.0064022534      -0.1413209862      0.0190054596
 C      -0.0362918536       0.0171315621     -0.0225659106
 C      -0.0023300326      -0.0029587003     -0.0056285903
 C       0.0134349953      -0.0362868443     -0.0156841066
 P      -0.1216720745      -0.0014871913      0.0338480488
 C       0.0260201972       0.0305593122     -0.0578811219
 P      -0.0468544797      -0.0009441739      0.0254454745
 C       0.0315529434      -0.0145370013     -0.0067433857
 S       0.0001638496       0.1433872012     -0.0040507195
 C       0.0162011010      -0.0172581757      0.0064817850
 C      -0.0141387329      -0.0064242327      0.0009233914
 C       0.0008876128       0.0236786777      0.0009610430
 S       0.1089390539      -0.0116190825      0.0114538204
 C      -0.0128391271       0.0380382141     -0.0062911176
 P      -0.0034839299      -0.0485490346      0.0233792114
 C      -0.0209368523       0.0474605178      0.0110253066
 C      -0.0094858023      -0.0391923627      0.0172484829
 C      -0.0347756578      -0.0104405100      0.0189316290
 C       0.0450728693      -0.0231167396      0.0138035154
 H       0.0042225933       0.0043492033     -0.0075309214
 H      -0.0016824826      -0.0017898653      0.0069750031
 H       0.0134874342       0.0119486986     -0.0134605783
 H      -0.0074439273      -0.0031686642      0.0021680731
 H       0.0026013551      -0.0011125872     -0.0032399793
 H      -0.0046398702      -0.0067993732     -0.0075986118
 H      -0.0022688909      -0.0011967596      0.0100047918
 H       0.0123298982       0.0133729680     -0.0122936504
 H      -0.0037258605       0.0029844404      0.0015358891
 H      -0.0012108752      -0.0024679467      0.0026555485
 H      -0.0023942139      -0.0010997598      0.0026203047
 H       0.0026201352      -0.0042557555      0.0013519615
 O       0.0005429138       0.0015741971     -0.0381285906
 C       0.0005202319      -0.0014299277      0.0588259163
 C      -0.0138475354      -0.0045025228     -0.0227767101
 C       0.0029151891       0.0012603954      0.0114351553
 C       0.0001313656      -0.0000069286     -0.0010239425
 C      -0.0024928582      -0.0004453442      0.0107916077
 C       0.0120784863       0.0038416461     -0.0225353321
 H       0.0010418511       0.0001360584      0.0037512377
 H      -0.0023249833      -0.0008379719     -0.0010157046
 H       0.0001343678      -0.0000480691     -0.0028427185
 H       0.0024086247       0.0008873720     -0.0012065206
 H      -0.0001258322      -0.0001639207      0.0034692330
 O      -0.0077316767      -0.0079112363      0.0515431132
46
terachem gradient in au, energy -3188.3273634261, grad_rms 0.025734, grad_max 0.079082 on atom 11
Mn       0.0134100070       0.0039466440     -0.0036961475
 C       0.0066934465       0.0115643599     -0.0324810579
 P      -0.0024739595      -0.0749825516      0.0112652047
 C      -0.0078660602       0.0064070632     -0.0087912517
 C       0.0057236826       0.0057761565     -0.0073440980
 C       0.0042430877      -0.0100083204     -0.0049144614
 P      -0.0606159106       0.0019531281      0.0265364007
 C       0.0070029952       0.0056263987     -0.0336454171
 P      -0.0062006470      -0.0070703063      0.0300611026
 C       0.0069600681      -0.0121318927     -0.0089251619
 S      -0.0064146209       0.0787768255     -0.0026622752
 C       0.0083491180      -0.0129998115      0.0082789214
 C      -0.0029646516      -0.0019871742     -0.0006916632
 C      -0.0048389183       0.0146727026      0.0031149985
 S       0.0594536615      -0.0080874801      0.0085442736
 C      -0.0116862555       0.0118050955     -0.0082796655
 P      -0.0083305029      -0.0088725348      0.0288613181
 C      -0.0086334986       0.0116476646      0.0017528607
 C      -0.0020544432      -0.0094162983      0.0030814843
 C      -0.0068711610      -0.0032769331      0.0056062431
 C       0.0090826022      -0.0091932593      0.0023727021
 H       0.0019629396       0.0019099435     -0.0026980253
 H      -0.0012807952      -0.0008817471      0.0039394440
 H       0.0069329243       0.0130090179     -0.0152427039
 H      -0.0040471277      -0.0008588957      0.0012270723
 H       0.0017375626      -0.0010467217     -0.0030525481
 H      -0.0006505795      -0.0042860644     -0.0030170326
 H       0.0008211197      -0.0009093133      0.0040656653
 H       0.0125111554       0.0065536906     -0.0142651908
 H      -0.0019428496      -0.0005645010      0.0002868584
 H      -0.0007182982       0.0004945147      0.0012743297
 H       0.0002965412      -0.0007359776      0.0013624355
 H      -0.0009043344      -0.0023538387     -0.0000972834
 O      -0.0025049254       0.0009381456     -0.0215140976
 C       0.0022139676      -0.0011247580      0.0376387984
 C      -0.0073394703      -0.0022121838     -0.0133381129
 C      -0.0011232961      -0.0001117036      0.0050970707
 C      -0.0000632944      -0.0001011970      0.0002764876
 C       0.0002408032       0.0004726612      0.0055824542
 C       0.0084548325       0.0026338922     -0.0144643901
 H       0.0009327444       0.0000344043      0.0025553821
 H      -0.0008839167      -0.0003312727     -0.0004734017
 H      -0.0000636253      -0.0001171980     -0.0004803473
 H       0.0007904431       0.0003117417     -0.0004262988
 H      -0.0009135649      -0.0003620999      0.0024583932
 O      -0.0064269958      -0.0045100163      0.0052607312
46
terachem gradient in au, energy -3188.4159953395, grad_rms 0.013045, grad_max 0.032007 on atom 17
Mn       0.0007782641      -0.0087860753      0.0122881454
 C       0.0016749329       0.0033936578     -0.0148836461
 P       0.0009673934      -0.0298112276     -0.0029651111
 C      -0.0036254464       0.0052124237     -0.0014113100
 C       0.0038879970       0.0040743174     -0.0010379311
 C       0.0031844364      -0.0051890889     -0.0020114677
 P      -0.0184027068       0.0055831454      0.0127194074
 C      -0.0016797749       0.0029354532     -0.0145971265
 P       0.0206658127      -0.0063024005      0.0202537910
 C      -0.0134636743      -0.0093930037     -0.0021241511
 S      -0.0010750952       0.0311914286     -0.0061329474
 C       0.0055507351       0.0033276000      0.0047589858
 C      -0.0030396719      -0.0057808031      0.0009219942
 C      -0.0031748658       0.0056741666      0.0023755472
 S       0.0257005268       0.0016749799      0.0015095978
 C      -0.0088308774      -0.0153809406     -0.0017791308
 P      -0.0067575596       0.0219604185      0.0222827013
 C      -0.0067450694      -0.0012620531      0.0031485941
 C       0.0006053329       0.0031246809     -0.0029675246
 C       0.0070207440       0.0019067379     -0.0026130500
 C      -0.0028406714      -0.0093904272      0.0071514022
 H      -0.0011784156      -0.0015330531      0.0006430606
 H      -0.0012849040      -0.0002957098      0.0003555461
 H      -0.0024375188       0.0075847925     -0.0135442127
 H      -0.0003867457       0.0013243798     -0.0000406430
 H      -0.0012883700      -0.0008049124     -0.0012526285
 H       0.0009949844      -0.0014187353      0.0002240168
 H       0.0025141035      -0.0003221680     -0.0002297179
 H       0.0079784467      -0.0024854061     -0.0133897359
 H      -0.0009229972      -0.0001676043     -0.0001059114
 H       0.0001896838       0.0008390965     -0.0003007757
 H       0.0008500156       0.0000376552     -0.0008078158
 H       0.0001706667      -0.0019568582     -0.0005452905
 O      -0.0028496264       0.0017401420      0.0085600023
 C       0.0004716831      -0.0007128763      0.0035092353
 C      -0.0047750476      -0.0014545903     -0.0046474854
 C       0.0050282815       0.0017565348      0.0048262541
 C      -0.0000829663       0.0000229364     -0.0091757648
 C      -0.0034604973      -0.0010950458      0.0035258807
 C       0.0024125249       0.0006674118     -0.0022729330
 H       0.0006445247       0.0000165480      0.0016475441
 H       0.0011335727       0.0003611821     -0.0000730353
 H       0.0002162967       0.0000344013     -0.0007611271
 H      -0.0010467510      -0.0003699121     -0.0003976053
 H      -0.0010335369      -0.0001670481      0.0007097607
 O      -0.0022581694      -0.0003641506     -0.0113433877
46
terachem gradient in au, energy -3188.4551169716, grad_rms 0.012445, grad_max 0.031284 on atom 34
Mn      -0.0033555530      -0.0145392010      0.0110587418
 C       0.0070957162      -0.0019704126      0.0007323037
 P       0.0017082099      -0.0052923615     -0.0085615309
 C       0.0029225529      -0.0003365151      0.0036652374
 C       0.0028163800       0.0016292278      0.0011850223
 C      -0.0009647490       0.0017126597      0.0003555219
 P       0.0019009801       0.0033516289      0.0044183437
 C      -0.0048469439       0.0052816917      0.0011405732
 P       0.0142788758      -0.0002148708      0.0059333813
 C      -0.0073567838       0.0005273101      0.0028751114
 S      -0.0040010327       0.0075774342     -0.0093660974
 C       0.0025567741      -0.0066857049      0.0080095171
 C       0.0057750595       0.0079005263     -0.0049166478
 C      -0.0054455320      -0.0019827669      0.0062297590
 S       0.0065263315       0.0034619333     -0.0054572275
 C      -0.0024152512      -0.0110672543      0.0035377332
 P       0.0008551381       0.0146092090      0.0070052197
 C       0.0033142532      -0.0113343135     -0.0065900734
 C      -0.0040063265       0.0026858566      0.0029458245
 C       0.0032724529      -0.0046812479      0.0062270116
 C      -0.0150141728       0.0054602756     -0.0062404262
 H      -0.0005864062      -0.0011708151      0.0002353079
 H      -0.0004337697       0.0002117854     -0.0007088264
 H      -0.0048597250       0.0039824831     -0.0060976620
 H       0.0019632918      -0.0009336040     -0.0003017020
 H       0.0004857204       0.0009640861     -0.0017318660
 H       0.0001155143       0.0016036811      0.0011437404
 H       0.0004857440       0.0014457309     -0.0005497530
 H       0.0034298450      -0.0039840219     -0.0062224651
 H       0.0006621452      -0.0006112043     -0.0011849253
 H      -0.0000611584      -0.0008217255      0.0004222540
 H      -0.0014745911      -0.0006829599      0.0003681827
 H      -0.0008102498       0.0006006902     -0.0020780894
 O      -0.0129171447      -0.0034269666      0.0282858012
 C       0.0098421565       0.0040730784     -0.0272659617
 C       0.0124456724       0.0044466195      0.0106982578
 C      -0.0165230147      -0.0053147650     -0.0193008309
 C      -0.0023590939      -0.0019314673      0.0295733620
 C       0.0141230543       0.0055703717     -0.0122018305
 C      -0.0069003700      -0.0027023130      0.0019051147
 H      -0.0008094044      -0.0002865217     -0.0029757547
 H      -0.0035654929      -0.0013092434     -0.0004357567
 H      -0.0010609905      -0.0005359916      0.0035253974
 H       0.0028542317       0.0008829390      0.0007543808
 H       0.0000890592       0.0000010674     -0.0029509889
 O       0.0002485971       0.0038359621     -0.0170926848
46
terachem gradient in au, energy -3188.4596542849, grad_rms 0.017165, grad_max 0.060187 on atom 38
Mn      -0.0072352065      -0.0179346478     -0.0075492574
 C      -0.0033258815      -0.0076642577      0.0169792153
 P      -0.0015412597       0.0144478466     -0.0076230400
 C      -0.0025207541      -0.0059720226      0.0051404160
 C      -0.0005217132      -0.0010515604      0.0025250363
 C      -0.0044985517       0.0020320440      0.0028074133
 P       0.0185213792      -0.0023529755     -0.0027515830
 C      -0.0040647021      -0.0040076250      0.0131365365
 P      -0.0105159271       0.0037077348     -0.0004994479
 C       0.0075778063       0.0103057427     -0.0036407928
 S      -0.0023441510      -0.0153773881     -0.0103814263
 C      -0.0000559030       0.0020476443      0.0081530192
 C      -0.0008777763       0.0036858856     -0.0026181559
 C       0.0029475130      -0.0035361338      0.0076594386
 S      -0.0141224114       0.0028372670     -0.0147453820
 C       0.0081330742       0.0050576878     -0.0009289601
 P       0.0026985462      -0.0109259204     -0.0016000841
 C       0.0034105272      -0.0082595722     -0.0022933172
 C       0.0037652436       0.0076401156     -0.0040808435
 C       0.0064313261       0.0073156867     -0.0077398173
 C      -0.0062593097       0.0052642699     -0.0036353878
 H       0.0003886190      -0.0000821224     -0.0009209344
 H       0.0009372569       0.0012712275     -0.0010209271
 H       0.0007929613       0.0030922171      0.0049116932
 H       0.0020208237      -0.0005400996     -0.0002878236
 H       0.0003082631      -0.0000783674     -0.0004850389
 H      -0.0005449084       0.0020388746      0.0009040585
 H      -0.0014520754       0.0008404228     -0.0007073973
 H       0.0020372889       0.0028985001      0.0039752278
 H       0.0006025101       0.0008039895      0.0001073300
 H       0.0000021133      -0.0001977576     -0.0005250875
 H      -0.0003954172       0.0006263532     -0.0006235267
 H       0.0012178783       0.0014938599      0.0001490761
 O       0.0036647368      -0.0045287753      0.0229998040
 C      -0.0048463778       0.0014664883     -0.0335568483
 C      -0.0095830274      -0.0046931070      0.0176728216
 C       0.0353971829       0.0108997315      0.0211071700
 C       0.0001629727       0.0045704619     -0.0600125605
 C      -0.0320474684      -0.0127992865      0.0149758280
 C       0.0018649144      -0.0006706568      0.0259650783
 H      -0.0006424549      -0.0003231663      0.0029208193
 H       0.0054868462       0.0017956056      0.0010719595
 H       0.0004319924       0.0006575972     -0.0076194341
 H      -0.0054161765      -0.0020931240      0.0004338749
 H       0.0022528211       0.0004990459      0.0028517714
 O       0.0017568575       0.0057922659     -0.0006005148
46
terachem gradient in au, energy -3188.4797728639, grad_rms 0.009405, grad_max 0.023355 on atom 34
Mn      -0.0062652507      -0.0155431412     -0.0038582236
 C      -0.0072633789      -0.0026405471      0.0108837867
 P      -0.0011463692       0.0085850493     -0.0055483046
 C      -0.0047907910      -0.0014586460      0.0010982265
 C      -0.0010265812      -0.0010426414      0.0008882442
 C      -0.0024278210      -0.0036918780     -0.0010419234
 P       0.0140478506       0.0000681861      0.0002597998
 C      -0.0016237717      -0.0054462083      0.0076550376
 P      -0.0048317139       0.0025521193     -0.0011404794
 C       0.0024920656      -0.0036539936      0.0017366078
 S      -0.0003579319      -0.0009330608     -0.0128052387
 C       0.0023622012       0.0108340236      0.0029433620
 C      -0.0077868361      -0.0078621095      0.0021752184
 C       0.0055803384       0.0014049387      0.0051316088
 S      -0.0022628853      -0.0011736932     -0.0134446798
 C       0.0013932092       0.0026844567      0.0020380124
 P      -0.0008035554      -0.0034107294     -0.0035329382
 C      -0.0045455699       0.0027694740      0.0049045394
 C       0.0072554735       0.0067182959     -0.0068522332
 C       0.0061424764       0.0097941019     -0.0093723411
 C       0.0049551785      -0.0038468136      0.0054790251
 H      -0.0001237115      -0.0004845717     -0.0005491949
 H       0.0006811288       0.0013545701     -0.0005288529
 H       0.0012634573      -0.0008736885      0.0018623289
 H      -0.0005346848       0.0015477956     -0.0002320848
 H      -0.0012716906      -0.0013783009      0.0009067615
 H      -0.0002117366       0.0000434745      0.0003324135
 H      -0.0003415668      -0.0011485623     -0.0003659855
 H      -0.0002779337       0.0017121509      0.0014762246
 H      -0.0003922999       0.0013265006      0.0011693431
 H       0.0006167512       0.0009468849     -0.0007461068
 H       0.0010625500       0.0007455142     -0.0009452034
 H       0.0017960943      -0.0003942843      0.0015811824
 O       0.0056266200       0.0000139847      0.0226669700
 C      -0.0057901763      -0.0003103434     -0.0125404514
 C       0.0114432169       0.0038923899     -0.0010436226
 C      -0.0061699959      -0.0020938267     -0.0064220224
 C       0.0002407575      -0.0007130141      0.0147600259
 C       0.0097639379       0.0037420230     -0.0104792285
 C      -0.0183581778      -0.0062579082      0.0063702603
 H       0.0007298136       0.0002714067     -0.0011103860
 H      -0.0009834226      -0.0003604753      0.0002097627
 H       0.0004000827      -0.0000126569      0.0020006873
 H       0.0012824279       0.0004349097     -0.0003233254
 H       0.0008170071       0.0003707340     -0.0008363534
 O      -0.0003647852       0.0029181102     -0.0048102487
46
terachem gradient in au, energy -3188.4863081763, grad_rms 0.008100, grad_max 0.018390 on atom 35
Mn      -0.0000748215      -0.0117624710      0.0069354320
 C       0.0047613427       0.0064743874     -0.0022349107
 P       0.0021348688      -0.0010609956     -0.0025524559
 C       0.0051212473       0.0009113938     -0.0011812369
 C       0.0009772197      -0.0005644268      0.0010914473
 C       0.0008115116       0.0014508336     -0.0073335972
 P       0.0008343671       0.0029047314      0.0044809863
 C      -0.0007853690       0.0066276078      0.0031225783
 P       0.0077004504      -0.0065230981     -0.0047055335
 C       0.0006838502       0.0025070916      0.0059421011
 S      -0.0111011567       0.0081055626     -0.0106089500
 C       0.0020949496      -0.0031770507      0.0053403012
 C       0.0041034006       0.0030298028     -0.0030217263
 C      -0.0021861412       0.0022585104      0.0066145192
 S       0.0064409467      -0.0067891116     -0.0080880724
 C      -0.0051114781      -0.0022392214      0.0072803423
 P       0.0022940618       0.0045858610     -0.0014648031
 C       0.0043707331      -0.0032360819     -0.0077196136
 C      -0.0058763133      -0.0022978264      0.0093954366
 C      -0.0062914986      -0.0056924069      0.0126555519
 C      -0.0031852438       0.0047348755     -0.0088771605
 H      -0.0003876158      -0.0013603203     -0.0000401670
 H       0.0004900680       0.0011675584     -0.0000834120
 H       0.0001000118      -0.0001125679     -0.0019096585
 H      -0.0001567435      -0.0002950063      0.0001750086
 H       0.0008005589       0.0006232569     -0.0000592964
 H      -0.0004034386       0.0005425114     -0.0003366547
 H       0.0001951964       0.0000353221     -0.0001016734
 H      -0.0007840203      -0.0019182768     -0.0017203262
 H       0.0002681828      -0.0010803309     -0.0010533644
 H      -0.0002699708      -0.0011963896      0.0010194999
 H      -0.0011005392      -0.0011049743      0.0014102553
 H      -0.0013584952       0.0002590511     -0.0007821802
 O      -0.0144363772      -0.0030784899      0.0062586058
 C       0.0106091759       0.0043974966     -0.0143632071
 C       0.0016398817       0.0003336978      0.0102676918
 C      -0.0079391966      -0.0028189656     -0.0080421749
 C      -0.0007404297      -0.0005284739      0.0112740658
 C       0.0013143634       0.0004201312     -0.0004253673
 C       0.0090671091       0.0036766303     -0.0007845544
 H      -0.0015677121      -0.0005903825     -0.0021293055
 H      -0.0014018812      -0.0004999402      0.0003754542
 H      -0.0011508976      -0.0004453690      0.0014117695
 H       0.0004113060       0.0001310391      0.0011347158
 H       0.0001846047      -0.0000197476     -0.0008954226
 O      -0.0011000693       0.0032145720     -0.0056709376
46
terachem gradient in au, energy -3188.4957545456, grad_rms 0.005448, grad_max 0.016524 on atom 11
Mn       0.0004197002      -0.0096676478      0.0094588635
 C       0.0010588586       0.0029382965     -0.0007040060
 P       0.0024575390       0.0000277523     -0.0012642880
 C       0.0023711706       0.0001606152     -0.0015362355
 C       0.0001674882      -0.0004444623      0.0021722901
 C      -0.0005266536       0.0011735226     -0.0051890859
 P       0.0023925520       0.0011627632      0.0039663791
 C       0.0009125086       0.0036630560      0.0004012376
 P       0.0032252477      -0.0013987322     -0.0023538400
 C      -0.0001876575       0.0005186834      0.0058426423
 S      -0.0099059986       0.0071879928     -0.0111016725
 C       0.0017813029      -0.0061730535      0.0050448866
 C       0.0058725624       0.0057269013     -0.0034481160
 C      -0.0029688117       0.0014597003      0.0061346857
 S       0.0021477141      -0.0075204801     -0.0102574286
 C      -0.0012209821      -0.0003596748      0.0073122750
 P       0.0000548826       0.0028607584     -0.0032424195
 C       0.0035178550      -0.0027085207     -0.0043587145
 C      -0.0039216794      -0.0014656338      0.0067584492
 C      -0.0038285736      -0.0019238612      0.0059819624
 C      -0.0005486134       0.0022388517     -0.0034467040
 H      -0.0005160792      -0.0008265540     -0.0003845881
 H       0.0008112419       0.0010674847     -0.0003302296
 H       0.0001537266      -0.0001248474     -0.0003103362
 H       0.0001507630      -0.0008050391      0.0001529707
 H       0.0014287787       0.0010770788      0.0000124354
 H      -0.0001950222       0.0005189303     -0.0002817820
 H       0.0001414421       0.0003268661      0.0001801178
 H      -0.0001006429      -0.0005178878     -0.0009319603
 H       0.0001016656      -0.0007485284     -0.0009057304
 H      -0.0001635665      -0.0006408117      0.0004334292
 H      -0.0003150598      -0.0003490278      0.0004897887
 H      -0.0008743429       0.0001151269     -0.0003981616
 O      -0.0045845570      -0.0015533201     -0.0034436764
 C       0.0007479409       0.0012025702     -0.0006477266
 C       0.0011971037      -0.0000263179     -0.0006565128
 C      -0.0040044372      -0.0015091362     -0.0016093695
 C       0.0000483533      -0.0000766181      0.0044611584
 C       0.0046999190       0.0017018163     -0.0017551670
 C      -0.0010945793       0.0002530419     -0.0022399880
 H       0.0002278631       0.0000956400     -0.0003333657
 H      -0.0003995448      -0.0001499783     -0.0000052220
 H       0.0000194915      -0.0000630889      0.0006372306
 H       0.0003398550       0.0001238008     -0.0001741039
 H      -0.0008254328      -0.0004310636     -0.0009044015
 O      -0.0002652914       0.0038830366      0.0027740299
46
terachem gradient in au, energy -3188.5035183098, grad_rms 0.008945, grad_max 0.032851 on atom 34
Mn       0.0057088949       0.0007051366      0.0054801165
 C      -0.0053465580      -0.0054195113      0.0016212364
 P      -0.0005089994       0.0034164821      0.0036153585
 C      -0.0064591978      -0.0030483587     -0.0045839448
 C      -0.0013642373      -0.0003633254      0.0047010063
 C      -0.0056291671      -0.0068668465      0.0009048098
 P       0.0045547629      -0.0008480285     -0.0031529518
 C      -0.0037515654      -0.0102012921     -0.0032706860
 P       0.0019970419       0.0071611317     -0.0001676662
 C      -0.0072085115       0.0012250415      0.0024829229
 S      -0.0012922569       0.0000540750      0.0006608402
 C       0.0020075308       0.0100772380     -0.0030704712
 C      -0.0024762248      -0.0087753597     -0.0001680610
 C       0.0047646432       0.0038965320      0.0000206056
 S      -0.0004262974       0.0009634491     -0.0050867237
 C       0.0028363123      -0.0031853209      0.0026335317
 P      -0.0011789827      -0.0015134842     -0.0025003755
 C      -0.0058366987       0.0042586520      0.0117925180
 C       0.0090714040       0.0032678056     -0.0080580625
 C       0.0041893034       0.0045111941     -0.0083160006
 C       0.0050886969      -0.0029783789      0.0107324021
 H      -0.0001012301       0.0001599573     -0.0011368960
 H       0.0015276332       0.0013651238     -0.0008827024
 H       0.0017520950       0.0000385059      0.0016574160
 H      -0.0012092529       0.0008437801     -0.0002155873
 H      -0.0011498403      -0.0008342271      0.0015865123
 H      -0.0006755424      -0.0015886077     -0.0002214136
 H       0.0015531345      -0.0017749688      0.0006038366
 H       0.0007450288       0.0022732337      0.0000300821
 H      -0.0009205667       0.0013085410      0.0010415166
 H       0.0007707028       0.0017448892     -0.0013971760
 H       0.0013491142       0.0013618805     -0.0013204991
 H       0.0006634713       0.0001850948      0.0008421540
 O      -0.0034313712      -0.0062433855     -0.0320696625
 C       0.0001503451       0.0006680285      0.0167059975
 C      -0.0059869150      -0.0030537468     -0.0066987914
 C       0.0023885452       0.0010281573      0.0054968507
 C      -0.0008206530       0.0001004149     -0.0116068803
 C      -0.0050540517      -0.0021543083      0.0076313568
 C       0.0082944907       0.0040102520     -0.0033128441
 H       0.0004500683       0.0003121325      0.0006906394
 H       0.0006657537       0.0002809429     -0.0006405167
 H      -0.0002759777      -0.0001271706     -0.0013773431
 H      -0.0009912153      -0.0004444527      0.0000836057
 H       0.0000049717      -0.0003288284      0.0011954449
 O       0.0015613684       0.0045319305      0.0170444956
46
terachem gradient in au, energy -3188.5079580981, grad_rms 0.004504, grad_max 0.019322 on atom 35
Mn       0.0033321727       0.0021001211     -0.0040334742
 C      -0.0005861264      -0.0015622175     -0.0000941053
 P      -0.0003968712       0.0004167569      0.0032585680
 C      -0.0010121513      -0.0017331839     -0.0010977532
 C      -0.0003125127       0.0004675037      0.0017047931
 C      -0.0029207942      -0.0007770136      0.0002404523
 P       0.0017317144      -0.0010274829      0.0001972668
 C      -0.0008515249      -0.0017165105     -0.0026724210
 P      -0.0004184201       0.0040152609      0.0024755592
 C      -0.0032140870      -0.0005947040      0.0004828440
 S      -0.0017858747       0.0027045549     -0.0015063498
 C       0.0021196927       0.0009999284     -0.0016611569
 C       0.0000119153      -0.0018832460     -0.0002034183
 C       0.0013057887       0.0014340644      0.0003947779
 S      -0.0013544814       0.0013552511     -0.0052387074
 C       0.0009818357      -0.0020213914      0.0012338141
 P       0.0004894358      -0.0006832244      0.0002101962
 C       0.0007477404      -0.0002372587      0.0007671265
 C       0.0004260431      -0.0011666393      0.0002358521
 C       0.0001742801       0.0001921264     -0.0003349100
 C      -0.0004129233       0.0002284619      0.0006944379
 H       0.0000418517       0.0002422106     -0.0007406902
 H       0.0006718905       0.0005565882     -0.0006274593
 H       0.0006003569      -0.0002800550      0.0005361805
 H      -0.0002469841      -0.0002829923      0.0000692767
 H      -0.0001656182      -0.0000140931      0.0003047118
 H      -0.0007186498      -0.0005130408      0.0003125033
 H       0.0006193198      -0.0002103949      0.0006572516
 H       0.0002804068       0.0006100054     -0.0004078133
 H       0.0000620376       0.0000623754     -0.0001918170
 H      -0.0000692749       0.0000662183     -0.0000458925
 H      -0.0000377786       0.0003436863     -0.0002701243
 H      -0.0000492484       0.0001468985     -0.0003091976
 O       0.0038958827       0.0003958487     -0.0013270198
 C      -0.0009861917       0.0005389973      0.0192895322
 C      -0.0083075722      -0.0037165511     -0.0054670121
 C       0.0078868508       0.0031242357      0.0062248981
 C      -0.0012487280      -0.0003203716     -0.0074431729
 C       0.0030273066       0.0012031032     -0.0001712356
 C      -0.0056077554      -0.0020743907     -0.0042841856
 H       0.0007717546       0.0003187804      0.0015612248
 H       0.0009194799       0.0003754364     -0.0000968960
 H       0.0009594810       0.0003963480     -0.0009778255
 H      -0.0002510122      -0.0001012269     -0.0011756523
 H      -0.0004867593      -0.0003075205      0.0003494815
 O       0.0003841019      -0.0010712535     -0.0008224582
46
terachem gradient in au, energy -3188.5093075686, grad_rms 0.002798, grad_max 0.008482 on atom 36
Mn       0.0023717589       0.0024159152      0.0009345374
 C      -0.0009660882       0.0000680445      0.0004281991
 P      -0.0004604526      -0.0014080216      0.0018537275
 C      -0.0004326038      -0.0003235633      0.0001053365
 C       0.0001130931       0.0008294087      0.0009436288
 C      -0.0007895752       0.0000084881     -0.0004325904
 P      -0.0006659104      -0.0007179902      0.0015847746
 C      -0.0001246002       0.0009552759     -0.0004257817
 P      -0.0007896262      -0.0017972116      0.0008223781
 C       0.0016562656       0.0015053290     -0.0002559805
 S      -0.0037968038       0.0026190465     -0.0016536945
 C       0.0005411170      -0.0043869640      0.0007572135
 C       0.0015657939       0.0032648135     -0.0003093371
 C      -0.0009324091      -0.0012724319      0.0018625949
 S      -0.0027304958      -0.0011378023     -0.0042480844
 C       0.0022379777       0.0006667744      0.0006294379
 P      -0.0013971434       0.0002661906     -0.0002530042
 C       0.0014040618       0.0000093533     -0.0019330249
 C      -0.0002291850      -0.0014979692      0.0009969753
 C       0.0004399501       0.0008891113     -0.0007615367
 C      -0.0002894558       0.0000309394     -0.0004982636
 H      -0.0003279827      -0.0001100393     -0.0003452812
 H       0.0004010849       0.0001592712     -0.0002212254
 H       0.0004788464       0.0000271428     -0.0000595646
 H       0.0004522000      -0.0006164872      0.0002172913
 H       0.0006769052       0.0006465878     -0.0007212060
 H      -0.0004990372       0.0002017328      0.0006515204
 H      -0.0000428548       0.0008247158      0.0005574249
 H       0.0002963312      -0.0000606946     -0.0003424569