19
terachem gradient in au, energy -537.4405622936, grad_rms 0.013719, grad_max 0.023921 on atom 5
Tc       0.0000030479      -0.0022874515      0.0000045796
 O      -0.0000074290       0.0195224505     -0.0000120635
 H      -0.0003060284       0.0089915771     -0.0010430620
 H       0.0003137471       0.0089863552      0.0010535550
 O       0.0188922273       0.0144825195      0.0023562883
 H       0.0005939191      -0.0066101374     -0.0067110164
 H       0.0004171729      -0.0070475509      0.0049263428
 O      -0.0000068410      -0.0184693205     -0.0000084359
 H       0.0027985477      -0.0082202322      0.0013516180
 H      -0.0027919850      -0.0082184950     -0.0013437115
 O      -0.0188919121       0.0144804508     -0.0023577693
 H      -0.0005953956      -0.0066077285      0.0067136163
 H      -0.0004165503      -0.0070493453     -0.0049244393
 O       0.0029105702      -0.0100018027      0.0173984729
 H       0.0037230306       0.0043152760      0.0045298089
 H      -0.0053241791       0.0047107619      0.0038762810
 O      -0.0029129064      -0.0099988706     -0.0174006514
 H      -0.0037221589       0.0043083752     -0.0045331154
 H       0.0053231238       0.0047131678     -0.0038762995
19
terachem gradient in au, energy -537.4691934249, grad_rms 0.010452, grad_max 0.020944 on atom 2
Tc       0.0019351213       0.0002579452     -0.0012650019
 O      -0.0019873571       0.0207945980      0.0015079583
 H      -0.0004769289       0.0011140368     -0.0017824461
 H       0.0015788780       0.0021910856      0.0008099981
 O       0.0126496077       0.0102604702      0.0013017354
 H      -0.0020384604      -0.0049643418     -0.0009286171
 H      -0.0019203902      -0.0049871261     -0.0001597493
 O      -0.0017897882      -0.0194874246      0.0009730756
 H       0.0019395144      -0.0010474757      0.0018990092
 H      -0.0008520616      -0.0018559792     -0.0023857895
 O      -0.0128008242       0.0101531574     -0.0011763336
 H       0.0019356980      -0.0049018884      0.0008872372
 H       0.0018490075      -0.0048933416      0.0000731649
 O       0.0014024939      -0.0075631001      0.0142865027
 H      -0.0002605617       0.0029597605      0.0003787604
 H      -0.0004211451       0.0033057668     -0.0003403018
 O      -0.0015879210      -0.0077131920     -0.0141619136
 H       0.0003295876       0.0029901934     -0.0003669870
 H       0.0005155301       0.0033868555      0.0004496978
19
terachem gradient in au, energy -537.4727671090, grad_rms 0.013204, grad_max 0.039412 on atom 2
Tc      -0.0025408504       0.0141228807      0.0019904624
 O       0.0018587160      -0.0393266675     -0.0018106607
 H      -0.0058265183      -0.0024527514      0.0005953641
 H       0.0044995391      -0.0028041142      0.0005618030
 O      -0.0030693183       0.0062244053      0.0004264958
 H      -0.0018292041      -0.0036602751      0.0019487138
 H      -0.0015643139      -0.0034787872     -0.0020995792
 O       0.0022415580       0.0303081874     -0.0009356376
 H      -0.0032017332       0.0022496013      0.0037544228
 H       0.0017997138       0.0023508434     -0.0031018048
 O       0.0036265651       0.0065276920     -0.0007418516
 H       0.0020990022      -0.0038906098     -0.0019004054
 H       0.0017576214      -0.0036671184      0.0023266365
 O       0.0000844809      -0.0071079157     -0.0091207232
 H      -0.0013951611       0.0028870943     -0.0022145602
 H       0.0014010557       0.0030237570     -0.0025739604
 O       0.0003974187      -0.0070766218      0.0084553902
 H       0.0012353920       0.0028104267      0.0020777546
 H      -0.0015739646       0.0029599732      0.0023621394
19
terachem gradient in au, energy -537.4818532327, grad_rms 0.004029, grad_max 0.006829 on atom 17
Tc       0.0000869617       0.0022509506     -0.0002186124
 O      -0.0002280733       0.0033715587     -0.0000219183
 H      -0.0007191107       0.0004432094     -0.0019996840
 H       0.0007689441       0.0007033809      0.0019830983
 O       0.0006873209       0.0063229031      0.0005409559
 H      -0.0010880708      -0.0035911057      0.0008309062
 H      -0.0009744915      -0.0033972629     -0.0012961896
 O      -0.0001291753      -0.0021437468      0.0002515933
 H       0.0007222173      -0.0002049849      0.0016180042
 H      -0.0007458808      -0.0004582099     -0.0016998947
 O      -0.0005590869       0.0064827527     -0.0005428193
 H       0.0011173024      -0.0037646504     -0.0008343670
 H       0.0009828292      -0.0035310860      0.0013187141
 O       0.0003956561      -0.0065938433      0.0013305350
 H      -0.0008528781       0.0026322564     -0.0007276001
 H       0.0007383986       0.0027977111     -0.0010034235
 O      -0.0003228605      -0.0067035378     -0.0012640453
 H       0.0008845788       0.0025799932      0.0007221699
 H      -0.0007645807       0.0028037115      0.0010125775
19
terachem gradient in au, energy -537.4837644019, grad_rms 0.003299, grad_max 0.005878 on atom 17
Tc       0.0005407929       0.0030997172     -0.0003938026
 O      -0.0005635841       0.0020452135      0.0000487181
 H      -0.0006604885      -0.0002272325     -0.0017589103
 H       0.0008871134      -0.0000534001      0.0015894402
 O       0.0009800199       0.0048783270      0.0004475720
 H      -0.0005003020      -0.0029198475      0.0006512652
 H      -0.0004322610      -0.0026916071     -0.0010581142
 O      -0.0004298704      -0.0015454183      0.0005773337
 H       0.0009990635       0.0002199403      0.0010543241
 H      -0.0007229539      -0.0000148806     -0.0012916095
 O      -0.0010767561       0.0048825548     -0.0003782955
 H       0.0005035689      -0.0031169314     -0.0006567933
 H       0.0004144237      -0.0028446009      0.0010329309
 O       0.0003659155      -0.0054532922      0.0013361378
 H      -0.0005230699       0.0023185072     -0.0003424412
 H       0.0005359280       0.0024391133     -0.0004383158
 O      -0.0003720876      -0.0057347746     -0.0012338763
 H       0.0005610309       0.0022604172      0.0003381301
 H      -0.0005064816       0.0024581961      0.0004763069
19
terachem gradient in au, energy -537.4879088950, grad_rms 0.001983, grad_max 0.003955 on atom 17
Tc      -0.0005708622       0.0003259755      0.0011336216
 O       0.0003016334      -0.0018252457     -0.0017233115
 H      -0.0009302345       0.0000883799     -0.0003069700
 H       0.0003847570      -0.0005849678      0.0006026208
 O      -0.0020899579       0.0013873017     -0.0003478968
 H       0.0008487802      -0.0008512630      0.0010395977
 H       0.0005795901      -0.0003919631     -0.0014104396
 O       0.0016407575       0.0024908424      0.0006096194
 H      -0.0004112000       0.0000016305      0.0002594170
 H       0.0000322366       0.0004393610     -0.0000285365
 O       0.0014889671       0.0008843071      0.0001984254
 H      -0.0005839620      -0.0012861841     -0.0011071186
 H      -0.0004167594      -0.0006922397      0.0015279880
 O       0.0004708673      -0.0015426695     -0.0027991924
 H      -0.0007103484       0.0012453640     -0.0001585517
 H       0.0009271322       0.0010736884      0.0003506375
 O      -0.0005880285      -0.0030473807      0.0024507899
 H       0.0006225500       0.0011240107      0.0000730193
 H      -0.0009959175       0.0011610534     -0.0003637191
19
terachem gradient in au, energy -537.4894010325, grad_rms 0.001633, grad_max 0.002843 on atom 5
Tc       0.0013244391      -0.0018421687      0.0013025079
 O      -0.0002584458      -0.0009261607     -0.0015780742
 H      -0.0001027095      -0.0008413323      0.0002478077
 H      -0.0001131133      -0.0011363571     -0.0002954730
 O      -0.0024854595       0.0007401190     -0.0011661524
 H       0.0012784576       0.0001350592      0.0008394325
 H       0.0009798816       0.0006330608     -0.0012506182
 O       0.0004250925      -0.0002432682      0.0013644574
 H       0.0001663660       0.0007285498     -0.0007871017
 H       0.0000905683       0.0008506320      0.0007783102
 O       0.0013856837       0.0014365380      0.0001917702
 H      -0.0010248730      -0.0004075967     -0.0009708533
 H      -0.0008023874       0.0001738608      0.0014053828
 O      -0.0016530702      -0.0000603081     -0.0007849243
 H      -0.0004214019       0.0006852765      0.0002326190
 H       0.0008766568       0.0004482313      0.0008779798
 O       0.0008919215      -0.0013687781      0.0006412785
 H       0.0004701892       0.0004474710     -0.0001902717
 H      -0.0010277942       0.0005471709     -0.0008580772
19
terachem gradient in au, energy -537.4897956006, grad_rms 0.001645, grad_max 0.005382 on atom 1
Tc      -0.0005694744      -0.0053035538      0.0007167762
 O       0.0011632177       0.0009479506      0.0008582845
 H       0.0002557824      -0.0004908279      0.0004105529
 H      -0.0002799165      -0.0005471829     -0.0005311525
 O      -0.0002125650       0.0011745322     -0.0003662442
 H       0.0003646842       0.0004627872      0.0001162248
 H       0.0004576808       0.0008527358      0.0003256255
 O      -0.0007189718      -0.0006532900     -0.0008494351
 H      -0.0006252043       0.0002522107     -0.0005825180
 H       0.0005639697       0.0002590552      0.0008061871
 O       0.0006784536       0.0021714525     -0.0005791600
 H      -0.0004653380      -0.0001976875     -0.0000829998
 H      -0.0004576985       0.0003429730     -0.0001195455
 O      -0.0012760938       0.0005749955     -0.0003215560
 H       0.0003217406       0.0004483159      0.0002087146
 H       0.0004298638       0.0002093098      0.0005900510
 O       0.0011611187      -0.0006206475      0.0002672399
 H      -0.0002453606       0.0000192832     -0.0000927217
 H      -0.0005458886       0.0000975868     -0.0007743227
19
terachem gradient in au, energy -537.4901246824, grad_rms 0.001359, grad_max 0.004352 on atom 1
Tc      -0.0000761256      -0.0043051282      0.0006307383
 O      -0.0003421701       0.0009825032     -0.0001563280
 H       0.0002924251      -0.0000147772      0.0001383979
 H      -0.0001437959       0.0001998796     -0.0003933409
 O       0.0009313988       0.0009941728     -0.0003743849
 H      -0.0002826824       0.0001969960     -0.0007300539
 H      -0.0001564647       0.0003348775      0.0010321450
 O       0.0000315695      -0.0000817567      0.0001839196
 H      -0.0005449895      -0.0002362500     -0.0003366644
 H       0.0004680626      -0.0002704703      0.0006908113
 O      -0.0003526254       0.0021223535     -0.0005285243
 H       0.0001439855      -0.0002450739      0.0007741838
 H       0.0001518608       0.0002723293     -0.0009510743
 O      -0.0006992898      -0.0005554324      0.0005823858
 H       0.0006057414       0.0003455058     -0.0002086555
 H      -0.0002997815       0.0001904171      0.0001023886
 O       0.0005144652      -0.0002202029     -0.0004877995
 H      -0.0006098209       0.0001435240      0.0002554000
 H       0.0003682355       0.0001465330     -0.0002235451
19
terachem gradient in au, energy -537.4903269286, grad_rms 0.000891, grad_max 0.002141 on atom 1
Tc       0.0006247657      -0.0020313494      0.0002596108
 O      -0.0004721096       0.0003639371      0.0003112744
 H      -0.0000052169       0.0002553225      0.0000976194
 H       0.0001025171       0.0005063485     -0.0002449891
 O       0.0006759449       0.0009189801     -0.0002283479
 H      -0.0005976460      -0.0001985979     -0.0003478290
 H      -0.0004518060       0.0001741161      0.0003049726
 O      -0.0002170208      -0.0004761436     -0.0000738220
 H       0.0000210485      -0.0001341503     -0.0004704378
 H       0.0001788992      -0.0002967726      0.0006231868
 O      -0.0006834441       0.0014698537     -0.0002462604
 H       0.0004631520      -0.0003038033      0.0004256117
 H       0.0004607405       0.0000954152     -0.0003637851
 O       0.0000127957      -0.0007512881      0.0007376846
 H       0.0001245466       0.0003450283     -0.0004228602
 H      -0.0002967223       0.0003182689     -0.0002368395
 O      -0.0001932877      -0.0004111156     -0.0007946998
 H      -0.0001125452       0.0000662508      0.0004025355
 H       0.0003653875       0.0000896996      0.0002673750
19
terachem gradient in au, energy -537.4904204398, grad_rms 0.000631, grad_max 0.001394 on atom 14
Tc      -0.0000443119      -0.0006835280     -0.0003505733
 O      -0.0002098722      -0.0001085071      0.0003444262
 H       0.0000023270       0.0001885074     -0.0000635951
 H       0.0000321636       0.0003440616     -0.0001368560
 O       0.0004191828       0.0009088324      0.0004363984
 H      -0.0004258284      -0.0004604823      0.0001327911
 H      -0.0002671961       0.0000589059     -0.0002709009
 O      -0.0000410389       0.0001713698     -0.0003059907
 H      -0.0001786123      -0.0000476199     -0.0002471366
 H       0.0003415215      -0.0002040011      0.0004700610
 O      -0.0002757903       0.0009551636     -0.0000620067
 H       0.0002919520      -0.0004176754     -0.0001839134
 H       0.0002612325      -0.0000238653      0.0002533472
 O       0.0002120257      -0.0012768569      0.0005174636
 H      -0.0002530700       0.0002364637     -0.0001780767
 H       0.0001051635       0.0002464335     -0.0002935972
 O      -0.0001636617       0.0000053263     -0.0005610243
 H       0.0002917882       0.0000087687      0.0001260379
 H      -0.0000979778       0.0000987029      0.0003731444
19
terachem gradient in au, energy -537.4904673165, grad_rms 0.000519, grad_max 0.001093 on atom 5
Tc      -0.0003100699       0.0000882883     -0.0004079059
 O       0.0001020481      -0.0004588380      0.0003172399
 H      -0.0001154758       0.0000435678     -0.0000342921
 H      -0.0000433416       0.0000792855     -0.0000390094
 O      -0.0002438925       0.0009856115      0.0004044316
 H       0.0000483878      -0.0005635370      0.0001059455
 H       0.0001077691      -0.0000380711     -0.0002105618
 O      -0.0000317639       0.0001965284     -0.0004009861
 H      -0.0001363256       0.0000653561     -0.0003074718
 H       0.0003474760      -0.0000433878      0.0004223075
 O       0.0002958142       0.0007711621      0.0001594390
 H      -0.0000634354      -0.0004269648     -0.0002251558
 H      -0.0000789028      -0.0001018804      0.0001927722
 O       0.0002191818      -0.0009311415     -0.0001323928
 H      -0.0002404573       0.0002084192      0.0001309427
 H       0.0001416250       0.0002380286     -0.0000662306
 O      -0.0000793124      -0.0001852623      0.0000856822
 H       0.0002325066       0.0000054523     -0.0001406440
 H      -0.0001518316       0.0000673821      0.0001458884
19
terachem gradient in au, energy -537.4905635740, grad_rms 0.000797, grad_max 0.001453 on atom 5
Tc      -0.0007743501       0.0007580740     -0.0004287640
 O       0.0006785056      -0.0005467439      0.0001216922
 H      -0.0001565033      -0.0001725672     -0.0000131545
 H      -0.0002293747      -0.0004455473      0.0000794782
 O      -0.0010491131       0.0009358069      0.0003681743
 H       0.0006790924      -0.0006146236      0.0000455288
 H       0.0005382823      -0.0001472323      0.0000103276
 O      -0.0000476318       0.0002485750     -0.0003652516
 H      -0.0001006104       0.0002154765     -0.0003941881
 H       0.0003160816       0.0001457235      0.0003536179
 O       0.0010431240       0.0005567094      0.0003755622
 H      -0.0005818706      -0.0004378512     -0.0001753337
 H      -0.0005222725      -0.0001706028     -0.0000150573
 O       0.0000948015      -0.0002762627     -0.0011155759
 H      -0.0001004309       0.0000448245      0.0005321456
 H       0.0000821642       0.0000732644      0.0003430175
 O       0.0002038891      -0.0000692634      0.0010746945
 H       0.0000014463      -0.0000638520     -0.0004744727
 H      -0.0000752299      -0.0000339074     -0.0003224407
19
terachem gradient in au, energy -537.4906519099, grad_rms 0.000869, grad_max 0.001364 on atom 14
Tc      -0.0008835057       0.0009025419     -0.0004457438
 O       0.0008298713      -0.0000359746     -0.0000023594
 H      -0.0000366102      -0.0003333185     -0.0000464216
 H      -0.0003281766      -0.0007599628      0.0001585369
 O      -0.0011263322       0.0005992653      0.0002294158
 H       0.0008321452      -0.0005786742      0.0000422611
 H       0.0005552661      -0.0001715071      0.0001590715
 O       0.0000417645       0.0002098005     -0.0002065328
 H      -0.0002377375       0.0001987321     -0.0003362384
 H       0.0002863986       0.0001747862      0.0001716721
 O       0.0011313283       0.0003935437      0.0005029729
 H      -0.0006928366      -0.0004467632     -0.0001408067
 H      -0.0005713356      -0.0001896677     -0.0001350377
 O      -0.0000728871       0.0005237380     -0.0012577384
 H       0.0000059803      -0.0001733240      0.0005716431
 H       0.0000223522      -0.0001352441      0.0005133074
 O       0.0004279931       0.0001410215      0.0012191561
 H      -0.0001645080      -0.0001830226     -0.0004679872
 H      -0.0000191706      -0.0001359700     -0.0005291714
19
terachem gradient in au, energy -537.4907166289, grad_rms 0.000596, grad_max 0.001185 on atom 14
Tc      -0.0003816523       0.0004688309     -0.0002668263
 O       0.0005471282       0.0003354092     -0.0001579370
 H       0.0000127126      -0.0002411912     -0.0000475617
 H      -0.0001808532      -0.0005768459      0.0001401873
 O      -0.0006792741       0.0003118543     -0.0000187460
 H       0.0005218218      -0.0004548720      0.0000284087
 H       0.0002331541      -0.0000987353      0.0001862883
 O      -0.0000200172      -0.0000604038      0.0001025421
 H      -0.0001725403       0.0001303303     -0.0003170681
 H       0.0000921375       0.0000924850      0.0000994659
 O       0.0006646466       0.0003471572      0.0004194038
 H      -0.0004394952      -0.0004500371     -0.0000690377
 H      -0.0002891019      -0.0001414435     -0.0001371401
 O      -0.0002512014       0.0009651669     -0.0006395767
 H       0.0000340016      -0.0003188705      0.0002572284
 H       0.0000114878      -0.0002747022      0.0003537778
 O       0.0004662876       0.0003857838      0.0006378158
 H      -0.0001582233      -0.0002623852     -0.0001774894
 H      -0.0000110190      -0.0001575306     -0.0003937355
19
terachem gradient in au, energy -537.4907602174, grad_rms 0.000412, grad_max 0.001150 on atom 14
Tc       0.0002360382      -0.0002649267     -0.0001109002
 O      -0.0001170473       0.0003660491     -0.0001871229
 H       0.0000797154      -0.0000503080     -0.0000745400
 H       0.0000306264      -0.0000828112      0.0001259290
 O       0.0000741769       0.0000928651     -0.0000752686
 H       0.0000069167      -0.0003435625      0.0000028121
 H      -0.0001762312       0.0000030636      0.0001240874
 O       0.0000384487      -0.0001066801      0.0003234649
 H      -0.0001742388      -0.0000326325     -0.0002475339
 H      -0.0000172353      -0.0000381495      0.0000404438
 O      -0.0000475352       0.0003928026      0.0001275439
 H      -0.0000353109      -0.0004089138      0.0000031404
 H       0.0000988867      -0.0000429639     -0.0000696157
 O      -0.0002351047       0.0011030697      0.0002259136
 H       0.0000252600      -0.0003730302     -0.0001216443
 H       0.0000158954      -0.0003186997      0.0000294630
 O       0.0002978843       0.0005325429     -0.0001571148
 H      -0.0000771348      -0.0002972688      0.0001262337
 H      -0.0000240098      -0.0001304461     -0.0000852921
19
terachem gradient in au, energy -537.4907950557, grad_rms 0.000525, grad_max 0.001222 on atom 14
Tc       0.0005545076      -0.0006730805      0.0000495731
 O      -0.0004101773       0.0000762537     -0.0002395861
 H       0.0000100742       0.0001532673     -0.0000976925
 H       0.0002291729       0.0002885277      0.0001229290
 O       0.0004253471       0.0000575840     -0.0000978146
 H      -0.0002892727      -0.0002684115     -0.0000216251
 H      -0.0003377818       0.0000887918      0.0000143488
 O      -0.0000362613      -0.0001929780      0.0004654824
 H      -0.0000726982      -0.0000689865     -0.0002007232
 H      -0.0001066842      -0.0000725415      0.0000215300
 O      -0.0003497070       0.0003424563     -0.0000996339
 H       0.0001943331      -0.0003695837      0.0000393041
 H       0.0002750222       0.0000488038      0.0000375081
 O      -0.0001936250       0.0010053728      0.0006679722
 H      -0.0000380875      -0.0003774762     -0.0003300436
 H       0.0000250645      -0.0003129042     -0.0001967874
 O       0.0001207665       0.0006326125     -0.0005308041
 H       0.0000266476      -0.0002864656      0.0002525486
 H      -0.0000266414      -0.0000712409      0.0001435143
19
terachem gradient in au, energy -537.4908396353, grad_rms 0.000681, grad_max 0.001313 on atom 14
Tc       0.0007255996      -0.0010078559      0.0001114276
 O      -0.0007719092      -0.0002543135     -0.0001160649
 H      -0.0000136071       0.0002792091     -0.0002220038
 H       0.0003732263       0.0006229470      0.0002320156
 O       0.0007485582      -0.0000751382      0.0000793647
 H      -0.0005586807      -0.0002351129     -0.0000337865
 H      -0.0003686828       0.0001803968     -0.0001111946
 O      -0.0000052129      -0.0001156138      0.0004543574
 H      -0.0000340984      -0.0001175150     -0.0000735472
 H      -0.0001134322      -0.0000904406     -0.0000636624
 O      -0.0005705972       0.0002236949     -0.0004148564
 H       0.0003768593      -0.0002426769      0.0000400354
 H       0.0003448567       0.0002039676      0.0001435763
 O       0.0000021700       0.0009009859      0.0009556036
 H      -0.0000701102      -0.0003731455     -0.0004071724
 H       0.0000414395      -0.0002609782     -0.0003905805
 O      -0.0001752137       0.0005987951     -0.0008007598
 H       0.0000981706      -0.0002506083      0.0002501252
 H      -0.0000293359       0.0000134033      0.0003671225
19
terachem gradient in au, energy -537.4908921216, grad_rms 0.000601, grad_max 0.001291 on atom 1
Tc       0.0005367734      -0.0011441771      0.0002653754
 O      -0.0005773211      -0.0005414770     -0.0000346208
 H      -0.0001368275       0.0003233945     -0.0003779067
 H       0.0004450318       0.0006004547      0.0003788310
 O       0.0004495375       0.0000478697      0.0000572935
 H      -0.0004804166      -0.0001666562     -0.0000564104
 H      -0.0001056883       0.0003074588     -0.0002072523
 O       0.0000261875      -0.0000180345      0.0003176676
 H       0.0000292460      -0.0000641569      0.0001127835
 H      -0.0001173525      -0.0000481510     -0.0001472056
 O      -0.0003122118      -0.0001282271     -0.0005342459
 H       0.0003083631      -0.0000777069      0.0000193107
 H       0.0001608050       0.0003849404      0.0002359792
 O       0.0000569143       0.0005818673      0.0007222164
 H      -0.0000745495      -0.0003131902     -0.0003096326
 H       0.0000181245      -0.0001528442     -0.0003888894
 O      -0.0003606543       0.0003977991     -0.0005723449
 H       0.0001421432      -0.0001465764      0.0001102818
 H      -0.0000081033       0.0001574118      0.0004087716
19
terachem gradient in au, energy -537.4909328977, grad_rms 0.000422, grad_max 0.000687 on atom 4
Tc       0.0001173157      -0.0005943133      0.0001865760
 O      -0.0002277408      -0.0005529863      0.0001185823
 H      -0.0002139046       0.0001968031     -0.0004826870
 H       0.0003191050       0.0002956545      0.0005323221
 O       0.0001834652      -0.0000764693      0.0001594569
 H      -0.0002407095      -0.0001871217     -0.0000899337
 H       0.0001421484       0.0003496131     -0.0001371879
 O       0.0000647676       0.0000395235      0.0000373103
 H       0.0001146712      -0.0000080514      0.0002363297
 H      -0.0000920263       0.0000214388     -0.0002240802
 O      -0.0000993515      -0.0004064863     -0.0004722701
 H       0.0001455873       0.0000840872     -0.0000010360
 H      -0.0000364368       0.0005124062      0.0001469478
 O       0.0001299336       0.0004246806      0.0002354903
 H      -0.0000093722      -0.0002627305     -0.0000725958
 H       0.0000118306      -0.0000642155     -0.0002002726
 O      -0.0003667363       0.0000708453     -0.0001462127
 H       0.0000523376      -0.0000637262     -0.0000701304
 H       0.0000051164       0.0002210485      0.0002433913
19
terachem gradient in au, energy -537.4909867559, grad_rms 0.000495, grad_max 0.000797 on atom 11
Tc      -0.0004870700      -0.0000132168      0.0001278688
 O       0.0004308839      -0.0000986293      0.0002426027
 H      -0.0001652102      -0.0000909999     -0.0005391223
 H       0.0000033970      -0.0003638107      0.0005895293
 O      -0.0004860529      -0.0000281804     -0.0000257539
 H       0.0002372067      -0.0001387853     -0.0002222393
 H       0.0004346193       0.0004123048      0.0001161558
 O       0.0001911201       0.0002574338     -0.0002625011
 H       0.0000665559       0.0000458662      0.0003500414
 H       0.0000240463       0.0000933451     -0.0002633085
 O       0.0002486645      -0.0007440480     -0.0001390228
 H      -0.0001289123       0.0002176604      0.0001189056
 H      -0.0002632594       0.0005874731     -0.0001296386
 O       0.0000329080      -0.0000100751     -0.0004986114
 H       0.0000736318      -0.0000972791      0.0002603982
 H      -0.0000159525       0.0000827996      0.0001820287
 O      -0.0001558513      -0.0004982796      0.0004890213
 H      -0.0000803328       0.0000874266     -0.0002605036
 H       0.0000396105       0.0002989932     -0.0001358491
19
terachem gradient in au, energy -537.4910484452, grad_rms 0.000804, grad_max 0.001410 on atom 1
Tc      -0.0009376912       0.0010514167     -0.0000529327
 O       0.0009631308       0.0002655459      0.0002575568
 H      -0.0001789890      -0.0002889727     -0.0004921577
 H      -0.0002393161      -0.0008682691      0.0005393440
 O      -0.0007427135      -0.0002420759     -0.0000966587
 H       0.0005439201      -0.0001962066     -0.0001571405
 H       0.0004912286       0.0004892828      0.0002647270
 O       0.0001582510       0.0001576162     -0.0004706281
 H       0.0001370410       0.0001042596      0.0003686190
 H       0.0000373986       0.0001269093     -0.0002248531
 O       0.0003649358      -0.0009180794      0.0002124348
 H      -0.0003226504       0.0002340886      0.0000067916
 H      -0.0003291850       0.0006448644     -0.0002069217
 O      -0.0000969137      -0.0004208198     -0.0010996298
 H       0.0000984177       0.0000535847      0.0004461284
 H       0.0000447175       0.0001634366      0.0004897230
 O       0.0002007604      -0.0008350456      0.0009643325
 H      -0.0001853518       0.0001869742     -0.0002806445
 H      -0.0000069912       0.0002914910     -0.0004680908
19
terachem gradient in au, energy -537.4911508983, grad_rms 0.001121, grad_max 0.002124 on atom 1
Tc      -0.0011519141       0.0017434576     -0.0003793602
 O       0.0011427111       0.0009634627      0.0003037652
 H       0.0000561903      -0.0005338195     -0.0003202748
 H      -0.0005079745      -0.0012633031      0.0003092362
 O      -0.0007395353      -0.0004569492     -0.0003002762
 H       0.0007612431      -0.0002650175     -0.0000351227
 H       0.0003399385       0.0006405239      0.0004951015
 O       0.0002194592       0.0003683500     -0.0006225168
 H      -0.0000191151       0.0001085236      0.0003510264
 H       0.0001338538       0.0000970430     -0.0001512389
 O       0.0002358049      -0.0009312645      0.0007044406
 H      -0.0004749198       0.0001238616     -0.0000665165
 H      -0.0002463253       0.0006404082     -0.0003328376
 O      -0.0003220157      -0.0011161270     -0.0015000309
 H       0.0001723747       0.0003677432      0.0005028930
 H       0.0000166903       0.0003009031      0.0007719396
 O       0.0007268657      -0.0013389323      0.0012026976
 H      -0.0003307694       0.0003503724     -0.0001246989
 H      -0.0000125620       0.0002007655     -0.0008082279
19
terachem gradient in au, energy -537.4912483626, grad_rms 0.001122, grad_max 0.002671 on atom 1
Tc      -0.0008415293       0.0024932479     -0.0004555043
 O       0.0008738854       0.0006781534      0.0000559430
 H       0.0000176753      -0.0004322437     -0.0001176927
 H      -0.0003727216      -0.0009403512      0.0001155526
 O      -0.0003292203      -0.0006774305     -0.0003109663
 H       0.0006317012      -0.0003714330      0.0001486342
 H       0.0000589900       0.0007617526      0.0004893441
 O       0.0000554933       0.0001214749     -0.0005341331
 H       0.0000849818       0.0000660137      0.0003130912
 H      -0.0000083117       0.0000553977     -0.0001326915
 O      -0.0000413352      -0.0007899933      0.0008858842
 H      -0.0004007464      -0.0001036777     -0.0002475157
 H      -0.0000594280       0.0006337755     -0.0001989119
 O      -0.0003913267      -0.0015195331     -0.0013314771
 H       0.0001730882       0.0005428935      0.0002872371
 H      -0.0000202031       0.0003342057      0.0006526280
 O       0.0009283452      -0.0013248189      0.0010318738
 H      -0.0003149315       0.0004215503      0.0001144231
 H      -0.0000444075       0.0000510171     -0.0007657175
19
terachem gradient in au, energy -537.4913812286, grad_rms 0.000830, grad_max 0.002136 on atom 1
Tc      -0.0001379835       0.0021145746     -0.0002720228
 O      -0.0000754435       0.0001483858     -0.0003562103
 H       0.0000251849       0.0000136718      0.0001085876
 H       0.0000151651       0.0000267420     -0.0000703014
 O       0.0002586715      -0.0007343052     -0.0002051934
 H       0.0001094061      -0.0003468977     -0.0000467136
 H      -0.0004232267       0.0006841077      0.0006086645
 O      -0.0000243700      -0.0000268304     -0.0002668606
 H      -0.0000693933      -0.0000680792      0.0001062622
 H      -0.0000207194      -0.0000457086     -0.0000497448