[Molden Format]
[Title]
Written by TeraChem
[Atoms] Angs
Tc   1   15     -0.00088   -0.02796   -0.00466
O   2   8     -0.11792    2.01251    0.15723
H   3   1      0.58202    2.67455    0.35511
H   4   1     -0.97462    2.48867    0.06147
O   5   8      2.18864   -0.06448    0.14126
H   6   1      2.75855    0.72465    0.24171
H   7   1      2.78047   -0.77462   -0.17990
O   8   8     -0.01397   -2.07841   -0.16449
H   9   1      0.72082   -2.71405   -0.00921
H   10   1     -0.82833   -2.60462   -0.33258
O   11   8     -2.19268    0.08708   -0.07617
H   12   1     -2.78482    0.01554    0.69979
H   13   1     -2.75654   -0.10910   -0.85168
O   14   8      0.05699   -0.19438    2.03890
H   15   1      0.90252   -0.34568    2.52038
H   16   1     -0.66242   -0.10226    2.70327
O   17   8      0.07743    0.15372   -2.05037
H   18   1     -0.64481    0.38152   -2.67853
H   19   1      0.91008    0.08576   -2.57050
[GTO]
    1 0
 s    3 1.00
            2.342000            -1.491178
            1.634000             1.674904
            0.509400             0.657301
 s    4 1.00
            2.342000             1.352400
            1.634000            -1.621630
            0.509400            -1.146377
            0.170600             0.985919
 s    1 1.00
            0.043500             1.000000
 p    3 1.00
            5.278000            -0.099542
            1.156000             0.708154
            0.430200             0.397357
 p    2 1.00
            0.476700            -0.097313
            0.089500             1.040486
 p    1 1.00
            0.024600             1.000000
 d    3 1.00
            4.632000             0.026872
            1.279000             0.507309
            0.442500             0.591138
 d    1 1.00
            0.136400             1.000000

    2 0
 s    6 1.00
         5484.671700             0.001831
          825.234950             0.013950
          188.046960             0.068445
           52.964500             0.232714
           16.897570             0.470193
            5.799635             0.358521
 s    3 1.00
           15.539616            -0.110778
            3.599934            -0.148026
            1.013762             1.130767
 s    1 1.00
            0.270006             1.000000
 p    3 1.00
           15.539616             0.070874
            3.599934             0.339753
            1.013762             0.727159
 p    1 1.00
            0.270006             1.000000
 d    1 1.00
            0.800000             1.000000

    3 0
 s    3 1.00
           18.731137             0.033495
            2.825394             0.234727
            0.640122             0.813757
 s    1 1.00
            0.161278             1.000000

    4 0
 s    3 1.00
           18.731137             0.033495
            2.825394             0.234727
            0.640122             0.813757
 s    1 1.00
            0.161278             1.000000

    5 0
 s    6 1.00
         5484.671700             0.001831
          825.234950             0.013950
          188.046960             0.068445
           52.964500             0.232714
           16.897570             0.470193
            5.799635             0.358521
 s    3 1.00
           15.539616            -0.110778
            3.599934            -0.148026
            1.013762             1.130767
 s    1 1.00
            0.270006             1.000000
 p    3 1.00
           15.539616             0.070874
            3.599934             0.339753
            1.013762             0.727159
 p    1 1.00
            0.270006             1.000000
 d    1 1.00
            0.800000             1.000000

    6 0
 s    3 1.00
           18.731137             0.033495
            2.825394             0.234727
            0.640122             0.813757
 s    1 1.00
            0.161278             1.000000

    7 0
 s    3 1.00
           18.731137             0.033495
            2.825394             0.234727
            0.640122             0.813757
 s    1 1.00
            0.161278             1.000000

    8 0
 s    6 1.00
         5484.671700             0.001831
          825.234950             0.013950
          188.046960             0.068445
           52.964500             0.232714
           16.897570             0.470193
            5.799635             0.358521
 s    3 1.00
           15.539616            -0.110778
            3.599934            -0.148026
            1.013762             1.130767
 s    1 1.00
            0.270006             1.000000
 p    3 1.00
           15.539616             0.070874
            3.599934             0.339753
            1.013762             0.727159
 p    1 1.00
            0.270006             1.000000
 d    1 1.00
            0.800000             1.000000

    9 0
 s    3 1.00
           18.731137             0.033495
            2.825394             0.234727
            0.640122             0.813757
 s    1 1.00
            0.161278             1.000000

   10 0
 s    3 1.00
           18.731137             0.033495
            2.825394             0.234727
            0.640122             0.813757
 s    1 1.00
            0.161278             1.000000

   11 0
 s    6 1.00
         5484.671700             0.001831
          825.234950             0.013950
          188.046960             0.068445
           52.964500             0.232714
           16.897570             0.470193
            5.799635             0.358521
 s    3 1.00
           15.539616            -0.110778
            3.599934            -0.148026
            1.013762             1.130767
 s    1 1.00
            0.270006             1.000000
 p    3 1.00
           15.539616             0.070874
            3.599934             0.339753
            1.013762             0.727159
 p    1 1.00
            0.270006             1.000000
 d    1 1.00
            0.800000             1.000000

   12 0
 s    3 1.00
           18.731137             0.033495
            2.825394             0.234727
            0.640122             0.813757
 s    1 1.00
            0.161278             1.000000

   13 0
 s    3 1.00
           18.731137             0.033495
            2.825394             0.234727
            0.640122             0.813757
 s    1 1.00
            0.161278             1.000000

   14 0
 s    6 1.00
         5484.671700             0.001831
          825.234950             0.013950
          188.046960             0.068445
           52.964500             0.232714
           16.897570             0.470193
            5.799635             0.358521
 s    3 1.00
           15.539616            -0.110778
            3.599934            -0.148026
            1.013762             1.130767
 s    1 1.00
            0.270006             1.000000
 p    3 1.00
           15.539616             0.070874
            3.599934             0.339753
            1.013762             0.727159
 p    1 1.00
            0.270006             1.000000
 d    1 1.00
            0.800000             1.000000

   15 0
 s    3 1.00
           18.731137             0.033495
            2.825394             0.234727
            0.640122             0.813757
 s    1 1.00
            0.161278             1.000000

   16 0
 s    3 1.00
           18.731137             0.033495
            2.825394             0.234727
            0.640122             0.813757
 s    1 1.00
            0.161278             1.000000

   17 0
 s    6 1.00
         5484.671700             0.001831
          825.234950             0.013950
          188.046960             0.068445
           52.964500             0.232714
           16.897570             0.470193
            5.799635             0.358521
 s    3 1.00
           15.539616            -0.110778
            3.599934            -0.148026
            1.013762             1.130767
 s    1 1.00
            0.270006             1.000000
 p    3 1.00
           15.539616             0.070874
            3.599934             0.339753
            1.013762             0.727159
 p    1 1.00
            0.270006             1.000000
 d    1 1.00
            0.800000             1.000000

   18 0
 s    3 1.00
           18.731137             0.033495
            2.825394             0.234727
            0.640122             0.813757
 s    1 1.00
            0.161278             1.000000

   19 0
 s    3 1.00
           18.731137             0.033495
            2.825394             0.234727
            0.640122             0.813757
 s    1 1.00
            0.161278             1.000000

[MO]
 Ene=   -19.7232
 Spin= Alpha
 Occup= 2.0
    1   -0.00119
    2   -0.00068
    3   -0.00081
    4    0.00002
    5    0.00002
    6   -0.00028
    7    0.00007
    8    0.00016
    9   -0.00204
   10   -0.00006
   11   -0.00004
   12    0.00034
   13    0.00064
   14    0.00059
   15    0.00065
   16   -0.00001
   17   -0.00001
   18   -0.00001
   19    0.00011
   20    0.00060
   21    0.00326
   22    0.00003
   23   -0.00003
   24   -0.00027
   25    0.00029
   26    0.00011
   27   -0.00041
   28    0.00001
   29    0.00000
   30   -0.00002
   31   -0.00004
   32    0.00002
   33    0.00019
   34    0.00006
   35    0.00007
   36    0.00000
   37    0.00000
   38   -0.00000
   39   -0.00003
   40    0.00002
   41    0.00009
   42    0.00002
   43    0.00004
   44    0.00002
   45    0.00006
   46   -0.00015
   47   -0.00000
   48    0.00001
   49   -0.00004
   50   -0.00008
   51   -0.00003
   52    0.00021
   53    0.00007
   54    0.00004
   55   -0.00000
   56    0.00001
   57   -0.00003
   58   -0.00000
   59    0.00002
   60    0.00010
   61    0.00004
   62    0.00004
   63    0.00142
   64    0.00016
   65   -0.00047
   66    0.00000
   67    0.00001
   68   -0.00002
   69   -0.00000
   70   -0.00007
   71    0.00018
   72    0.00007
   73    0.00007
   74    0.00002
   75   -0.00000
   76   -0.00001
   77    0.00004
   78    0.00001
   79    0.00008
   80    0.00003
   81    0.00004
   82    0.00001
   83    0.00002
   84    0.00003
   85    0.00002
   86    0.00000
   87   -0.00004
   88   -0.00002
   89   -0.00002
   90    0.00029
   91    0.00004
   92    0.00003
   93   -0.00003
   94   -0.00001
   95    0.00002
   96   -0.00001
   97   -0.00008
   98    0.00004
   99    0.00008
  100   -0.00006
  101   -0.00020
  102    0.00020
  103   -0.00118
  104   -0.00000
  105    0.00000
  106   -0.00005
  107    0.00003
  108   -0.00003
  109    0.00049
  110    0.00015
  111    0.00013
  112    0.00007
  113    0.00000
  114   -0.00001
  115    0.00000
  116    0.00000
  117    0.00002
  118    0.00001
  119   -0.00001
  120   -0.99255
  121   -0.02526
  122   -0.01540
  123   -0.00008
  124   -0.00013
  125    0.00078
  126    0.00011
  127    0.00015
  128   -0.00153
  129    0.00875
  130    0.00869
  131    0.00855
  132   -0.00001
  133    0.00002
  134    0.00001
  135   -0.00039
  136    0.00100
  137   -0.00039
  138    0.00096
 Ene=   -19.7228
 Spin= Alpha
 Occup= 2.0
    1   -0.00120
    2   -0.00068
    3   -0.00082
    4   -0.00001
    5   -0.00028
    6   -0.00002
    7    0.00001
    8   -0.00203
    9   -0.00020
   10    0.00005
   11    0.00035
   12    0.00001
   13    0.00064
   14    0.00066
   15    0.00059
   16    0.00001
   17    0.00001
   18    0.00001
   19    0.00010
   20    0.00327
   21    0.00061
   22   -0.00009
   23   -0.00005
   24    0.00024
   25   -0.00022
   26    0.00020
   27   -0.00119
   28    0.00001
   29   -0.00005
   30   -0.00001
   31   -0.00004
   32    0.00049
   33    0.00005
   34    0.00015
   35    0.00007
   36    0.00013
   37    0.00001
   38    0.00000
   39   -0.00001
   40    0.00001
   41   -0.00001
   42    0.00000
   43    0.00002
   44    0.00001
   45    0.00002
   46    0.00002
   47   -0.00002
   48   -0.00004
   49   -0.00000
   50    0.00001
   51    0.00029
   52    0.00004
   53    0.00004
   54   -0.00003
   55    0.00002
   56   -0.00002
   57    0.00001
   58   -0.00002
   59   -0.00008
   60    0.00004
   61    0.00008
   62   -0.00006
   63   -0.99255
   64   -0.02527
   65   -0.01539
   66    0.00006
   67    0.00080
   68    0.00001
   69   -0.00007
   70   -0.00154
   71   -0.00012
   72    0.00875
   73    0.00855
   74    0.00868
   75   -0.00002
   76    0.00002
   77   -0.00001
   78   -0.00039
   79    0.00100
   80   -0.00039
   81    0.00096
   82    0.00002
   83    0.00006
   84   -0.00013
   85    0.00000
   86   -0.00004
   87    0.00000
   88    0.00008
   89    0.00020
   90    0.00001
   91    0.00007
   92    0.00000
   93    0.00004
   94    0.00003
   95   -0.00000
   96   -0.00001
   97    0.00002
   98    0.00011
   99    0.00004
  100    0.00005
  101    0.00033
  102    0.00011
  103   -0.00043
  104   -0.00001
  105   -0.00002
  106   -0.00000
  107    0.00003
  108    0.00019
  109    0.00005
  110    0.00006
  111    0.00002
  112    0.00006
  113    0.00001
  114   -0.00000
  115   -0.00005
  116    0.00002
  117    0.00004
  118    0.00002
  119    0.00010
  120   -0.00137
  121    0.00009
  122   -0.00052
  123    0.00000
  124   -0.00002
  125    0.00001
  126   -0.00001
  127    0.00019
  128   -0.00005
  129    0.00009
  130    0.00003
  131    0.00010
  132    0.00001
  133    0.00000
  134    0.00003
  135    0.00001
  136    0.00008
  137    0.00003
  138    0.00004
 Ene=   -19.7204
 Spin= Alpha
 Occup= 2.0
    1   -0.00119
    2   -0.00069
    3   -0.00079
    4    0.00000
    5   -0.00002
    6    0.00028
    7    0.00021
    8   -0.00020
    9    0.00206
   10   -0.00004
   11    0.00002
   12   -0.00035
   13    0.00063
   14    0.00059
   15    0.00065
   16   -0.00001
   17    0.00000
   18   -0.00000
   19    0.00014
   20    0.00050
   21    0.00332
   22    0.00003
   23    0.00002
   24   -0.00028
   25    0.00429
   26    0.00021
   27   -0.00032
   28    0.00001
   29    0.00000
   30    0.00002
   31   -0.00005
   32    0.00001
   33   -0.00019
   34    0.00002
   35    0.00003
   36   -0.00002
   37    0.00000
   38   -0.00001
   39    0.00004
   40    0.00004
   41    0.00006
   42    0.00000
   43    0.00009
   44    0.00002
   45    0.00007
   46   -0.00028
   47    0.00000
   48   -0.00000
   49    0.00003
   50   -0.00001
   51    0.00002
   52   -0.00023
   53    0.00007
   54    0.00003
   55    0.00002
   56   -0.00001
   57    0.00005
   58   -0.00000
   59    0.00003
   60    0.00004
   61    0.00001
   62    0.00007
   63   -0.00029
   64    0.00009
   65   -0.00039
   66    0.00000
   67    0.00000
   68    0.00002
   69   -0.00002
   70   -0.00001
   71   -0.00020
   72    0.00006
   73    0.00008
   74    0.00001
   75    0.00000
   76   -0.00001
   77   -0.00003
   78    0.00004
   79    0.00003
   80    0.00001
   81    0.00008
   82    0.00000
   83    0.00000
   84    0.00013
   85    0.00002
   86   -0.00000
   87    0.00004
   88    0.00003
   89    0.00002
   90   -0.00023
   91    0.00004
   92    0.00003
   93   -0.00005
   94    0.00001
   95   -0.00001
   96    0.00002
   97    0.00008
   98   -0.00007
   99   -0.00007
  100    0.00006
  101   -0.99254
  102   -0.02525
  103   -0.01548
  104   -0.00008
  105    0.00004
  106   -0.00078
  107    0.00006
  108   -0.00012
  109    0.00155
  110    0.00876
  111    0.00869
  112    0.00856
  113   -0.00001
  114   -0.00002
  115    0.00001
  116   -0.00037
  117    0.00095
  118   -0.00041
  119    0.00101
  120    0.00029
  121    0.00021
  122   -0.00119
  123   -0.00000
  124   -0.00001
  125    0.00005
  126    0.00004
  127    0.00005
  128   -0.00050
  129    0.00014
  130    0.00013
  131    0.00007
  132   -0.00000
  133    0.00001
  134    0.00001
  135    0.00001
  136   -0.00001
  137    0.00000
  138    0.00001
 Ene=   -19.7202
 Spin= Alpha
 Occup= 2.0
    1    0.00121
    2    0.00070
    3    0.00079
    4    0.00001
    5   -0.00028
    6   -0.00002
    7    0.00027
    8   -0.00206
    9   -0.00015
   10   -0.00004
   11    0.00035
   12    0.00003
   13   -0.00063
   14   -0.00065
   15   -0.00059
   16    0.00001
   17   -0.00001
   18   -0.00001
   19   -0.00014
   20   -0.00334
   21   -0.00052
   22    0.00013
   23    0.00005
   24   -0.00025
   25    0.99254
   26    0.02525
   27    0.01550
   28   -0.00010
   29    0.00077
   30    0.00009
   31    0.00011
   32   -0.00155
   33   -0.00013
   34   -0.00876
   35   -0.00856
   36   -0.00870
   37   -0.00002
   38   -0.00001
   39    0.00001
   40    0.00041
   41   -0.00101
   42    0.00037
   43   -0.00095
   44   -0.00000
   45   -0.00000
   46   -0.00013
   47    0.00002
   48   -0.00004
   49   -0.00000
   50    0.00003
   51    0.00023
   52    0.00002
   53   -0.00004
   54    0.00006
   55   -0.00003
   56   -0.00001
   57    0.00001
   58   -0.00000
   59   -0.00008
   60    0.00007
   61    0.00007
   62   -0.00007
   63   -0.00031
   64   -0.00021
   65    0.00120
   66   -0.00000
   67   -0.00005
   68   -0.00000
   69    0.00002
   70    0.00051
   71    0.00004
   72   -0.00014
   73   -0.00007
   74   -0.00013
   75    0.00000
   76    0.00000
   77    0.00001
   78   -0.00001
   79    0.00001
   80   -0.00000
   81   -0.00001
   82   -0.00002
   83   -0.00007
   84    0.00028
   85    0.00001
   86   -0.00003
   87   -0.00000
   88   -0.00001
   89    0.00023
   90    0.00002
   91   -0.00007
   92   -0.00002
   93   -0.00003
   94    0.00005
   95   -0.00000
   96    0.00000
   97   -0.00003
   98   -0.00004
   99   -0.00001
  100   -0.00007
  101    0.00425
  102    0.00001
  103    0.00045
  104    0.00001
  105   -0.00002
  106    0.00000
  107   -0.00006
  108    0.00019
  109    0.00001
  110   -0.00010
  111   -0.00004
  112   -0.00011
  113   -0.00001
  114    0.00000
  115   -0.00003
  116    0.00000
  117   -0.00010
  118   -0.00004
  119   -0.00006
  120    0.00025
  121   -0.00009
  122    0.00039
  123    0.00000
  124   -0.00002
  125   -0.00000
  126   -0.00003
  127    0.00019
  128    0.00004
  129   -0.00006
  130   -0.00002
  131   -0.00006
  132   -0.00001
  133   -0.00000
  134    0.00004
  135   -0.00004
  136   -0.00003
  137   -0.00001
  138   -0.00008
 Ene=   -19.6813
 Spin= Alpha
 Occup= 2.0
    1   -0.00087
    2   -0.00051
    3   -0.00037
    4   -0.00017
    5    0.00000
    6   -0.00000
    7   -0.00203
    8    0.00036
    9   -0.00011
   10    0.00032
   11   -0.00000
   12    0.00001
   13    0.00040
   14    0.00036
   15    0.00041
   16    0.00002
   17   -0.00001
   18    0.00000
   19    0.00261
   20    0.00062
   21   -0.00020
   22   -0.00024
   23    0.00014
   24    0.00004
   25    0.00003
   26    0.00016
   27   -0.00076
   28   -0.00002
   29   -0.00001
   30   -0.00001
   31    0.00027
   32    0.00018
   33    0.00005
   34    0.00006
   35    0.00009
   36    0.00009
   37   -0.00005
   38   -0.00001
   39   -0.00001
   40   -0.00002
   41   -0.00002
   42    0.00000
   43    0.00006
   44   -0.00609
   45   -0.00005
   46   -0.00068
   47   -0.00005
   48   -0.00001
   49   -0.00000
   50    0.00038
   51    0.00003
   52    0.00004
   53    0.00006
   54    0.00013
   55    0.00014
   56   -0.00000
   57   -0.00001
   58   -0.00000
   59   -0.00001
   60   -0.00005
   61    0.00001
   62   -0.00002
   63    0.00001
   64    0.00007
   65   -0.00027
   66   -0.00003
   67    0.00003
   68   -0.00000
   69    0.00021
   70   -0.00013
   71    0.00001
   72   -0.00001
   73    0.00005
   74    0.00008
   75    0.00002
   76   -0.00000
   77   -0.00001
   78   -0.00005
   79    0.00003
   80    0.00005
   81   -0.00005
   82   -0.99258
   83   -0.02537
   84   -0.01454
   85    0.00084
   86    0.00028
   87    0.00000
   88   -0.00145
   89   -0.00002
   90   -0.00004
   91    0.00842
   92    0.00857
   93    0.00866
   94   -0.00000
   95   -0.00000
   96    0.00000
   97   -0.00040
   98    0.00096
   99   -0.00040
  100    0.00097
  101   -0.00000
  102    0.00000
  103    0.00019
  104   -0.00004
  105    0.00001
  106   -0.00002
  107    0.00026
  108   -0.00005
  109   -0.00006
  110   -0.00004
  111    0.00002
  112    0.00003
  113    0.00001
  114   -0.00000
  115    0.00000
  116   -0.00009
  117    0.00006
  118    0.00009
  119   -0.00007
  120    0.00000
  121    0.00003
  122    0.00006
  123   -0.00004
  124    0.00001
  125    0.00002
  126    0.00031
  127   -0.00008
  128    0.00003
  129   -0.00002
  130    0.00003
  131    0.00004
  132    0.00001
  133    0.00002
  134   -0.00001
  135    0.00009
  136   -0.00007
  137   -0.00008
  138    0.00004
 Ene=   -19.6813
 Spin= Alpha
 Occup= 2.0
    1   -0.00087
    2   -0.00050
    3   -0.00036
    4    0.00017
    5   -0.00000
    6    0.00001
    7    0.00207
    8   -0.00013
    9    0.00035
   10   -0.00032
   11   -0.00000
   12   -0.00001
   13    0.00040
   14    0.00041
   15    0.00036
   16    0.00001
   17   -0.00001
   18    0.00001
   19    0.00258
   20   -0.00020
   21    0.00063
   22   -0.00010
   23    0.00026
   24   -0.00012
   25   -0.00001
   26   -0.00000
   27    0.00021
   28    0.00004
   29   -0.00002
   30    0.00001
   31   -0.00026
   32   -0.00006
   33   -0.00006
   34   -0.00004
   35    0.00003
   36    0.00002
   37    0.00000
   38   -0.00001
   39    0.00000
   40    0.00009
   41   -0.00007
   42   -0.00009
   43    0.00006
   44   -0.99258
   45   -0.02536
   46   -0.01456
   47   -0.00084
   48   -0.00008
   49    0.00023
   50    0.00145
   51    0.00001
   52    0.00001
   53    0.00842
   54    0.00866
   55    0.00858
   56   -0.00000
   57   -0.00000
   58    0.00002
   59   -0.00040
   60    0.00096
   61   -0.00040
   62    0.00097
   63    0.00000
   64    0.00003
   65    0.00006
   66    0.00004
   67    0.00001
   68    0.00002
   69   -0.00032
   70    0.00003
   71   -0.00008
   72   -0.00002
   73    0.00004
   74    0.00003
   75   -0.00002
   76   -0.00001
   77   -0.00001
   78    0.00009
   79   -0.00007
   80   -0.00008
   81    0.00004
   82    0.00613
   83    0.00026
   84   -0.00051
   85    0.00004
   86   -0.00000
   87   -0.00000
   88   -0.00036
   89    0.00003
   90    0.00002
   91   -0.00004
   92    0.00004
   93    0.00002
   94    0.00001
   95    0.00000
   96    0.00000
   97    0.00000
   98   -0.00006
   99    0.00001
  100   -0.00003
  101    0.00003
  102    0.00016
  103   -0.00075
  104    0.00002
  105   -0.00001
  106   -0.00001
  107   -0.00028
  108    0.00002
  109    0.00018
  110    0.00005
  111    0.00009
  112    0.00009
  113   -0.00000
  114    0.00005
  115   -0.00000
  116    0.00001
  117    0.00005
  118   -0.00002
  119   -0.00002
  120    0.00001
  121    0.00008
  122   -0.00030
  123    0.00003
  124   -0.00000
  125    0.00002
  126   -0.00022
  127    0.00003
  128   -0.00014
  129   -0.00001
  130    0.00008
  131    0.00005
  132    0.00000
  133   -0.00003
  134   -0.00000
  135   -0.00005
  136    0.00003
  137    0.00005
  138   -0.00005
 Ene=    -3.2691
 Spin= Alpha
 Occup= 2.0
    1   -1.05629
    2   -0.01224
    3   -0.01053
    4    0.00002
    5    0.00004
    6    0.00002
    7    0.00003
    8   -0.00012
    9   -0.00014
   10   -0.00000
   11   -0.00002
   12   -0.00001
   13    0.04030
   14    0.01851
   15    0.01862
   16   -0.00217
   17    0.00248
   18    0.00011
   19   -0.00721
   20    0.00919
   21    0.00913
   22    0.00094
   23   -0.00125
   24   -0.00016
   25    0.00119
   26   -0.00050
   27   -0.00805
   28   -0.00006
   29    0.00190
   30    0.00014
   31   -0.00057
   32    0.00263
   33    0.00026
   34    0.00101
   35   -0.00011
   36    0.00076
   37    0.00011
   38    0.00001
   39   -0.00010
   40    0.00004
   41    0.00107
   42   -0.00018
   43    0.00153
   44    0.00043
   45   -0.00084
   46    0.00195
   47    0.00080
   48    0.00002
   49    0.00004
   50    0.00017
   51   -0.00025
   52    0.00014
   53   -0.00105
   54    0.00036
   55    0.00031
   56    0.00003
   57   -0.00014
   58    0.00003
   59   -0.00035
   60    0.00145
   61   -0.00045
   62    0.00141
   63    0.00118
   64   -0.00041
   65   -0.00821
   66   -0.00005
   67   -0.00184
   68   -0.00015
   69    0.00031
   70   -0.00279
   71   -0.00025
   72    0.00105
   73   -0.00009
   74    0.00079
   75   -0.00003
   76    0.00000
   77   -0.00009
   78   -0.00014
   79    0.00111
   80   -0.00001
   81    0.00133
   82    0.00042
   83   -0.00084
   84    0.00197
   85   -0.00080
   86    0.00003
   87    0.00000
   88   -0.00015
   89    0.00015
   90   -0.00021
   91   -0.00105
   92    0.00030
   93    0.00037
   94    0.00011
   95   -0.00005
   96    0.00002
   97   -0.00035
   98    0.00145
   99   -0.00045
  100    0.00142
  101    0.00119
  102   -0.00049
  103   -0.00807
  104    0.00001
  105   -0.00017
  106    0.00189
  107    0.00047
  108   -0.00016
  109    0.00267
  110    0.00102
  111    0.00077
  112   -0.00012
  113    0.00001
  114   -0.00008
  115    0.00006
  116   -0.00018
  117    0.00153
  118    0.00004
  119    0.00106
  120    0.00118
  121   -0.00042
  122   -0.00824
  123    0.00010
  124    0.00016
  125   -0.00185
  126   -0.00018
  127    0.00023
  128   -0.00281
  129    0.00105
  130    0.00079
  131   -0.00008
  132   -0.00000
  133    0.00007
  134    0.00008
  135   -0.00014
  136    0.00112
  137   -0.00001
  138    0.00132
 Ene=    -2.2284
 Spin= Alpha
 Occup= 2.0
    1   -0.00002
    2    0.00001
    3   -0.00001
    4    0.11774
    5    0.73194
    6   -0.66353
    7    0.00033
    8   -0.00409
    9    0.00373
   10    0.00029
   11    0.00082
   12   -0.00074
   13    0.00002
   14   -0.00001
   15    0.00004
   16   -0.00013
   17   -0.00014
   18   -0.00000
   19   -0.00002
   20    0.00011
   21   -0.00010
   22    0.00001
   23    0.00003
   24    0.00004
   25   -0.00519
   26    0.01155
   27    0.00869
   28    0.00074
   29   -0.00877
   30   -0.00219
   31    0.00075
   32   -0.00154
   33   -0.00186
   34    0.00098
   35    0.00135
   36    0.00040
   37   -0.00010
   38    0.00010
   39    0.00076
   40   -0.00011
   41   -0.00005
   42    0.00024
   43    0.00049
   44   -0.00024
   45    0.00074
   46   -0.00011
   47   -0.00054
   48    0.00052
   49   -0.00049
   50    0.00043
   51    0.00164
   52   -0.00121
   53    0.00009
   54    0.00027
   55    0.00021
   56   -0.00048
   57    0.00052
   58   -0.00005
   59   -0.00037
   60    0.00009
   61    0.00015
   62   -0.00023
   63    0.00519
   64   -0.01144
   65   -0.00898
   66    0.00025
   67   -0.00875
   68   -0.00223
   69    0.00011
   70   -0.00176
   71   -0.00200
   72   -0.00093
   73   -0.00136
   74   -0.00036
   75    0.00016
   76   -0.00016
   77   -0.00071
   78    0.00010
   79   -0.00026
   80   -0.00015
   81   -0.00027
   82    0.00022
   83   -0.00071
   84    0.00016
   85   -0.00051
   86    0.00053
   87   -0.00048
   88    0.00045
   89    0.00138
   90   -0.00154
   91   -0.00009
   92   -0.00020
   93   -0.00027
   94    0.00055
   95   -0.00041
   96    0.00008
   97    0.00040
   98   -0.00010
   99   -0.00019
  100    0.00026
  101    0.00555
  102   -0.01233
  103   -0.00934
  104    0.00045
  105    0.00059
  106    0.00962
  107    0.00067
  108    0.00144
  109    0.00197
  110   -0.00103
  111   -0.00023
  112   -0.00163
  113    0.00013
  114   -0.00005
  115   -0.00050
  116   -0.00025
  117   -0.00052
  118    0.00012
  119    0.00005
  120   -0.00561
  121    0.01237
  122    0.00969
  123   -0.00011
  124    0.00058
  125    0.00969
  126   -0.00003
  127    0.00155
  128    0.00220
  129    0.00100
  130    0.00020
  131    0.00165
  132   -0.00019
  133    0.00009
  134    0.00042
  135   -0.00009
  136    0.00026
  137    0.00016
  138    0.00029
 Ene=    -2.2275
 Spin= Alpha
 Occup= 2.0
    1    0.00003
    2   -0.00002
    3   -0.00018
    4   -0.01571
    5    0.66948
    6    0.73568
    7    0.00015
    8   -0.00342
    9   -0.00374
   10   -0.00000
   11    0.00073
   12    0.00080
   13    0.00011
   14   -0.00004
   15   -0.00007
   16   -0.00015
   17    0.00012
   18   -0.00013
   19   -0.00030
   20    0.00038
   21    0.00032
   22    0.00002
   23   -0.00003
   24   -0.00015
   25   -0.00563
   26    0.01259
   27    0.00919
   28    0.00042
   29   -0.00980
   30    0.00066
   31    0.00066
   32   -0.00190
   33    0.00167
   34    0.00106
   35    0.00169
   36    0.00027
   37    0.00002
   38    0.00019
   39   -0.00045
   40   -0.00022
   41    0.00003
   42    0.00038
   43    0.00036
   44   -0.00009
   45    0.00020
   46    0.00022
   47   -0.00019
   48    0.00049
   49    0.00049
   50   -0.00021
   51    0.00162
   52    0.00144
   53    0.00009
   54    0.00006
   55   -0.00008
   56   -0.00038
   57   -0.00051
   58   -0.00006
   59   -0.00037
   60    0.00027
   61    0.00043
   62   -0.00020
   63    0.00555
   64   -0.01221
   65   -0.00971
   66   -0.00014
   67   -0.00955
   68    0.00059
   69   -0.00000
   70   -0.00218
   71    0.00140
   72   -0.00096
   73   -0.00161
   74   -0.00019
   75    0.00003
   76   -0.00018
   77    0.00049
   78   -0.00005
   79   -0.00007
   80   -0.00006
   81   -0.00034
   82   -0.00011
   83    0.00023
   84    0.00031
   85    0.00020
   86    0.00044
   87    0.00054
   88    0.00019
   89    0.00124
   90    0.00172
   91    0.00006
   92   -0.00005
   93    0.00005
   94    0.00049
   95    0.00044
   96   -0.00006
   97   -0.00034
   98    0.00028
   99    0.00041
  100   -0.00016
  101   -0.00525
  102    0.01174
  103    0.00858
  104   -0.00014
  105    0.00228
  106   -0.00891
  107   -0.00062
  108    0.00205
  109   -0.00151
  110    0.00099
  111    0.00041
  112    0.00142
  113   -0.00015
  114   -0.00005
  115   -0.00073
  116    0.00036
  117    0.00033
  118   -0.00022
  119    0.00005
  120    0.00519
  121   -0.01142
  122   -0.00907
  123    0.00040
  124    0.00225
  125   -0.00868
  126    0.00002
  127    0.00187
  128   -0.00176
  129   -0.00090
  130   -0.00035
  131   -0.00132
  132    0.00012
  133    0.00001
  134    0.00077
  135   -0.00005
  136   -0.00005