25
terachem gradient in au, energy -418.4226038217, grad_rms 0.015841, grad_max 0.018232 on atom 3
Tc       0.0016704657       0.0004087146     -0.0000575698
 N      -0.0014848967       0.0096284340     -0.0000320540
 H      -0.0182152804      -0.0007893458     -0.0000397462
 H       0.0083146491      -0.0007338478      0.0154230200
 H       0.0083519121      -0.0006987469     -0.0153889295
 N       0.0113248935      -0.0056356297     -0.0001325869
 H      -0.0003235834       0.0181501563      0.0003170886
 H      -0.0009434783      -0.0079786008      0.0149811415
 H      -0.0009332251      -0.0074290285     -0.0151867834
 N       0.0010754413      -0.0093850865     -0.0004296837
 H       0.0178705439       0.0008151864      0.0015698862
 H      -0.0089345623       0.0008890142      0.0154405887
 H      -0.0066096458       0.0011291610     -0.0167127116
 N      -0.0111610197       0.0051777673      0.0001690373
 H       0.0001815956      -0.0181039069     -0.0004994986
 H       0.0012778200       0.0076944777      0.0158776187
 H       0.0012252949       0.0086034397     -0.0154422026
 N      -0.0047140981      -0.0007837929      0.0116999330
 H      -0.0139303359       0.0081893822     -0.0007949549
 H       0.0023640962      -0.0166452770     -0.0005849698
 H       0.0148706602       0.0084851444     -0.0006717583
 N      -0.0046493295      -0.0007475566     -0.0116877304
 H      -0.0137967035       0.0083111521      0.0007604070
 H       0.0149162160       0.0083683711      0.0007010053
 H       0.0022525683      -0.0169195802      0.0007214522
25
terachem gradient in au, energy -418.4391370688, grad_rms 0.005719, grad_max 0.010921 on atom 14
Tc       0.0009196988      -0.0002644466      0.0002032048
 N      -0.0002255936       0.0098812294     -0.0000453894
 H       0.0012033182      -0.0036057438      0.0000089418
 H      -0.0004706992      -0.0025910602     -0.0012516762
 H      -0.0004527042      -0.0025631569      0.0012502497
 N       0.0105911418      -0.0023448995     -0.0000438176
 H      -0.0028948461      -0.0009814436      0.0000661576
 H      -0.0032397821       0.0014653995     -0.0004926370
 H      -0.0032413281       0.0014769005      0.0005407496
 N       0.0009860245      -0.0097167362     -0.0004616129
 H      -0.0011379009       0.0033372609      0.0001036858
 H       0.0007226200       0.0026232249     -0.0012225856
 H       0.0006870428       0.0026909646      0.0012985623
 N      -0.0103693817       0.0034258920      0.0000780352
 H       0.0027045607       0.0010672374      0.0000387779
 H       0.0033283876      -0.0013377467     -0.0007409238
 H       0.0033073620      -0.0013313677      0.0006545240
 N      -0.0033636482      -0.0005226226      0.0092767971
 H       0.0015453976      -0.0004391989     -0.0026149730
 H       0.0009115855       0.0012436506     -0.0027669312
 H      -0.0003254619      -0.0007654253     -0.0030953904
 N      -0.0032705782      -0.0007763615     -0.0092584429
 H       0.0015141825      -0.0004496536      0.0025295880
 H      -0.0003084124      -0.0008041513      0.0031039127
 H       0.0008790141       0.0012822546      0.0028411929
25
terachem gradient in au, energy -418.4402032935, grad_rms 0.001916, grad_max 0.003622 on atom 14
Tc       0.0003346609      -0.0007847473      0.0002375119
 N       0.0011157099       0.0027219024     -0.0000734900
 H       0.0008724126      -0.0012927874     -0.0000002785
 H      -0.0003635170      -0.0007104625     -0.0009223484
 H      -0.0003668832      -0.0006989182      0.0009036083
 N       0.0031844481      -0.0004632441      0.0000059161
 H      -0.0011599003      -0.0008830741      0.0000459443
 H      -0.0009786673       0.0009524278     -0.0005981241
 H      -0.0009579079       0.0009758494      0.0006468438
 N       0.0003669176      -0.0027462777     -0.0003295686
 H      -0.0008561143       0.0012131459      0.0000704366
 H       0.0003135503       0.0007194280     -0.0009457600
 H       0.0003617585       0.0006691650      0.0009483799
 N      -0.0031374464       0.0018098418      0.0000395524
 H       0.0010334092       0.0008887033      0.0000361004
 H       0.0010105269      -0.0008536584     -0.0007074534
 H       0.0010263663      -0.0008617375      0.0006379207
 N      -0.0018568241      -0.0001130473      0.0023770377
 H       0.0010140069      -0.0003853606     -0.0005299261
 H       0.0004402889       0.0008661862     -0.0008342383
 H      -0.0005657462      -0.0005815070     -0.0010569644
 N      -0.0017651950      -0.0003657937     -0.0023385815
 H       0.0010294422      -0.0003760994      0.0004875482
 H      -0.0005343604      -0.0005902878      0.0010448756
 H       0.0004390635       0.0008903538      0.0008550565
25
terachem gradient in au, energy -418.4403446216, grad_rms 0.000535, grad_max 0.001175 on atom 18
Tc       0.0006020152      -0.0006785519      0.0001797701
 N       0.0005283338      -0.0006803551     -0.0000699476
 H      -0.0000154312       0.0002336365     -0.0000217407
 H      -0.0001091792       0.0001523268      0.0000384993
 H      -0.0001507530       0.0001454185     -0.0000884366
 N      -0.0004148439      -0.0003119254      0.0001162574
 H      -0.0001147044      -0.0000772882      0.0000299987
 H       0.0002500485       0.0001455204      0.0000033053
 H       0.0002970925       0.0001959521      0.0000222530
 N       0.0003946536       0.0005626184     -0.0002478418
 H      -0.0000026443      -0.0000891963      0.0001215340
 H      -0.0000471696      -0.0001456423     -0.0000027380
 H       0.0000932174      -0.0002056485     -0.0000252003
 N       0.0002123872       0.0011384720     -0.0000299000
 H       0.0000731026       0.0000707731      0.0000090003
 H      -0.0001651155      -0.0001236547     -0.0000454380
 H      -0.0001253334      -0.0001060338      0.0000012414
 N      -0.0011039945       0.0001255204     -0.0003822050
 H       0.0000913882      -0.0000251765      0.0003007243
 H       0.0002525683      -0.0000129043      0.0000315869
 H      -0.0000139714      -0.0001064851      0.0000628847
 N      -0.0009414514      -0.0001022598      0.0004303459
 H       0.0001254045      -0.0000007938     -0.0003124336
 H       0.0000163736      -0.0000985328     -0.0000715617
 H       0.0002680045      -0.0000057881     -0.0000499582
25
terachem gradient in au, energy -418.4403810765, grad_rms 0.000538, grad_max 0.001077 on atom 18
Tc       0.0006069296      -0.0006730297      0.0001057394
 N       0.0003723121      -0.0008681826     -0.0001418877
 H      -0.0001455992       0.0003213433      0.0000076007
 H       0.0000533116       0.0002415747      0.0001697273
 H       0.0000223903       0.0002347850     -0.0002047176
 N      -0.0007233818      -0.0000541777      0.0000750768
 H       0.0000778763       0.0001888823      0.0000646167
 H       0.0003033366      -0.0000314472      0.0001881548
 H       0.0003452984       0.0000033468     -0.0001257688
 N       0.0001909407       0.0008023969     -0.0001410286
 H       0.0001424409      -0.0002290058      0.0001058824
 H      -0.0001702871      -0.0002445611      0.0001153733
 H      -0.0000022890      -0.0002771147     -0.0001727608
 N       0.0005266215       0.0006266512      0.0000186135
 H      -0.0000967390      -0.0001728867     -0.0000324875
 H      -0.0002469510       0.0000515937      0.0000947616
 H      -0.0002147928       0.0000545515     -0.0001742427
 N      -0.0008371909       0.0002794043     -0.0006172259
 H      -0.0001411050      -0.0000265409      0.0002764181
 H       0.0001105291      -0.0001799952      0.0001212257
 H       0.0001406542       0.0000575014      0.0002241667
 N      -0.0005507182       0.0000318887      0.0007122395
 H      -0.0000872717      -0.0000072136     -0.0003245735
 H       0.0001946772       0.0000645198     -0.0002159436
 H       0.0001290092      -0.0001942815     -0.0001289587
25
terachem gradient in au, energy -418.4404827946, grad_rms 0.000709, grad_max 0.001528 on atom 14
Tc       0.0004514761      -0.0003726127     -0.0001911806
 N      -0.0003525491      -0.0006692726     -0.0000985846
 H      -0.0002978518       0.0003095315     -0.0000367805
 H       0.0004030545       0.0002185015      0.0002032217
 H       0.0002618737       0.0001722403     -0.0003811034
 N      -0.0008285453       0.0006844548      0.0003880494
 H       0.0004428152       0.0004712378      0.0000013793
 H       0.0000471668      -0.0004334278      0.0003606926
 H       0.0002544673      -0.0004170005     -0.0002587710
 N      -0.0003423030       0.0007883158      0.0000573837
 H       0.0003251761      -0.0003791510      0.0001451796
 H      -0.0002642695      -0.0002315025      0.0003206074
 H      -0.0002186633      -0.0002134527     -0.0002965227
 N       0.0008089724      -0.0012791868     -0.0002132267
 H      -0.0004116560      -0.0004437229     -0.0000006088
 H      -0.0002854423       0.0004045640      0.0002228836
 H      -0.0001145620       0.0004056865     -0.0003317026
 N       0.0004190993       0.0007883927     -0.0002472614
 H      -0.0005702087      -0.0001046303     -0.0000851628
 H      -0.0003303648      -0.0003287369      0.0000737945
 H       0.0001729248       0.0002896650      0.0003584971
 N       0.0008027063       0.0006523900      0.0005683652
 H      -0.0004422193      -0.0001745584     -0.0000247833
 H       0.0003096894       0.0002982595     -0.0003598438
 H      -0.0002407859      -0.0004359852     -0.0001745240
25
terachem gradient in au, energy -418.4405612642, grad_rms 0.000985, grad_max 0.002660 on atom 14
Tc      -0.0002854554      -0.0001687447     -0.0004931973
 N      -0.0008172820       0.0000342714     -0.0001469701
 H      -0.0002440626       0.0001144162     -0.0000279800
 H       0.0005006661       0.0000847709      0.0000670985
 H       0.0003214139      -0.0000262310     -0.0003529762
 N      -0.0004457244       0.0011170699      0.0003076999
 H       0.0005891515       0.0004792885     -0.0000025328
 H      -0.0002598562      -0.0005608018      0.0003640343
 H       0.0000410071      -0.0006186661     -0.0001592109
 N      -0.0006788907       0.0002542832      0.0003590174
 H       0.0002994299      -0.0003127520      0.0000917041
 H      -0.0002142972      -0.0000673325      0.0003219701
 H      -0.0002513144      -0.0000390671     -0.0002244523
 N       0.0007477317      -0.0025495997     -0.0001250883
 H      -0.0005429619      -0.0004651634     -0.0000237135
 H      -0.0001884437       0.0005718221      0.0001631031
 H       0.0000433320       0.0005092222     -0.0003309976
 N       0.0017762635       0.0009436774      0.0004769394
 H      -0.0007311070      -0.0001422638     -0.0004347963
 H      -0.0005950064      -0.0002434906     -0.0000268636
 H       0.0000534472       0.0003874428      0.0002754023
 N       0.0014830967       0.0011097390     -0.0000384310
 H      -0.0004724740      -0.0003118220      0.0002810503
 H       0.0002720009       0.0003443911     -0.0002702479
 H      -0.0004006643      -0.0004444600     -0.0000505609
25
terachem gradient in au, energy -418.4407256163, grad_rms 0.001178, grad_max 0.002926 on atom 14
Tc      -0.0006627449      -0.0002302322     -0.0003885176
 N      -0.0010699799       0.0014335604     -0.0006827139
 H       0.0000364927      -0.0003361559      0.0001739450
 H       0.0002157437      -0.0003093180     -0.0001394039
 H       0.0002509400      -0.0003844986      0.0000173240
 N       0.0005713055       0.0009979469     -0.0007532341
 H       0.0004427773       0.0001639595      0.0002793487
 H      -0.0005249627      -0.0003007902      0.0002651418
 H      -0.0004738391      -0.0005645309      0.0002540167
 N      -0.0008247316      -0.0010044328      0.0009278512
 H       0.0000505330       0.0000395157     -0.0001787808
 H      -0.0000564998       0.0003119018      0.0000515776
 H       0.0000685723       0.0003500864     -0.0000380322
 N       0.0000279849      -0.0028022187      0.0008427427
 H      -0.0004060437      -0.0001666663     -0.0002765724
 H       0.0001863929       0.0005375692     -0.0001802247
 H       0.0002292285       0.0002733237     -0.0002468030
 N       0.0024168810       0.0008287021      0.0010643911
 H      -0.0005733281      -0.0001272589     -0.0007574841
 H      -0.0005983137       0.0000891898     -0.0001118880
 H      -0.0002454689       0.0003960397      0.0000093855
 N       0.0013628510       0.0012137549     -0.0011221873
 H      -0.0001723364      -0.0003475212      0.0005104261
 H       0.0000602156       0.0001254519      0.0001503856
 H      -0.0003116693      -0.0001873801      0.0003293064
25
terachem gradient in au, energy -418.4410402767, grad_rms 0.001640, grad_max 0.003647 on atom 2
Tc       0.0006047238      -0.0006100590      0.0003320279
 N      -0.0008059681       0.0035486485     -0.0002339237
 H       0.0006084581      -0.0010244736      0.0001384205
 H      -0.0004800298      -0.0009089259     -0.0006912024
 H      -0.0001874059      -0.0009466311      0.0006532911
 N       0.0021755317       0.0000319785     -0.0014318806
 H      -0.0002047697      -0.0006394661      0.0003585530
 H      -0.0007805980       0.0004407663     -0.0002067049
 H      -0.0010795962      -0.0000427727      0.0008438243
 N      -0.0006684379      -0.0032062531      0.0007005249
 H      -0.0005785531       0.0008087059     -0.0002482273
 H       0.0003599753       0.0009653879     -0.0005006629
 H       0.0006287786       0.0009060774      0.0005556668
 N      -0.0016504745      -0.0014319958      0.0012242129
 H       0.0002039940       0.0006001469     -0.0002638047
 H       0.0007448029       0.0000543396     -0.0007636110
 H       0.0005834015      -0.0004397091      0.0001960530
 N       0.0012724415       0.0001600202      0.0010007063
 H       0.0001851675       0.0000439154     -0.0006668512
 H      -0.0001600480       0.0007317642     -0.0002668688
 H      -0.0007035302       0.0003280409     -0.0004663349
 N      -0.0003360710       0.0009713634     -0.0025856500
 H       0.0005319652      -0.0003122349      0.0006663775
 H      -0.0004361006      -0.0004419235      0.0008996226
 H       0.0001723446       0.0004132906      0.0007564400
25
terachem gradient in au, energy -418.4412677680, grad_rms 0.001215, grad_max 0.002286 on atom 10
Tc       0.0009428332      -0.0007405962      0.0000705756
 N      -0.0001822690       0.0022571217      0.0001700816
 H       0.0004817510      -0.0008004558     -0.0000136693
 H      -0.0005840597      -0.0006315700     -0.0005966584
 H      -0.0003719947      -0.0006406772      0.0005152434
 N       0.0016493807      -0.0005687259     -0.0007751730
 H      -0.0004556450      -0.0006962491      0.0000703178
 H      -0.0004802073       0.0005832982     -0.0003635583
 H      -0.0006652772       0.0002621357      0.0006730081
 N      -0.0002431992      -0.0022660061      0.0001826142
 H      -0.0005209700       0.0007389299     -0.0000525091
 H       0.0003944648       0.0007377292     -0.0004297157
 H       0.0005420658       0.0006823072      0.0005721359
 N      -0.0015023293       0.0001399839      0.0005185400
 H       0.0004806628       0.0006461489     -0.0000107589
 H       0.0005481800      -0.0002777578     -0.0006705215
 H       0.0004349426      -0.0006454173      0.0003176512
 N      -0.0001906981      -0.0000261488      0.0007833595
 H       0.0006086598       0.0000389707     -0.0003350974
 H       0.0002456184       0.0006748640     -0.0001178057
 H      -0.0006134487       0.0001592069     -0.0004414639
 N      -0.0011851772       0.0003964332     -0.0016132018
 H       0.0007083475      -0.0000879558      0.0002386584
 H      -0.0004795408      -0.0004567961      0.0007540322
 H       0.0004379108       0.0005212282      0.0005539123
25
terachem gradient in au, energy -418.4414072732, grad_rms 0.000583, grad_max 0.001386 on atom 1
Tc       0.0008354492      -0.0011047403      0.0000563823
 N       0.0004933560      -0.0000413502      0.0003158252
 H       0.0000215690      -0.0001423231     -0.0001413914
 H      -0.0002584534       0.0000598884     -0.0001141880
 H      -0.0002629635       0.0000669707      0.0000260768
 N      -0.0000541474      -0.0006254522      0.0000721934
 H      -0.0002215978      -0.0000945604     -0.0002108563
 H       0.0001282722       0.0002696659     -0.0001283876
 H       0.0001143776       0.0002276934      0.0000637466
 N      -0.0000133427      -0.0001380363     -0.0001092341
 H      -0.0000812150       0.0001534366      0.0001499191
 H       0.0001709050       0.0000516117     -0.0000117892
 H       0.0000976527       0.0000178524      0.0001776662
 N      -0.0000470394       0.0009595749     -0.0003478984
 H       0.0002828450       0.0000767982      0.0001957130
 H      -0.0000333938      -0.0002796543     -0.0000643743
 H      -0.0000795325      -0.0003878178      0.0000454138
 N      -0.0010122261       0.0001005623     -0.0000481150
 H       0.0003722972       0.0000656912      0.0002142537
 H       0.0003917676       0.0001714335      0.0000683645
 H      -0.0001094715       0.0000826059     -0.0001831553
 N      -0.0013318288       0.0003602336      0.0001086781
 H       0.0003189482       0.0001411387     -0.0002935966
 H      -0.0000810351      -0.0001226844      0.0001319616
 H       0.0003588079       0.0001314602      0.0000267942
25
terachem gradient in au, energy -418.4414505124, grad_rms 0.000580, grad_max 0.001543 on atom 1
Tc       0.0009003572      -0.0012518828     -0.0000457229
 N       0.0005233531      -0.0005507326      0.0002549176
 H      -0.0001522775       0.0000645847     -0.0000914995
 H      -0.0000917739       0.0002162630      0.0001171416
 H      -0.0001095967       0.0001959274     -0.0001178617
 N      -0.0004843095      -0.0004004590      0.0000852289
 H      -0.0000579939       0.0001465984     -0.0001687971
 H       0.0002764397       0.0000962189      0.0000351397
 H       0.0002324341       0.0000710722     -0.0001455235
 N      -0.0000661920       0.0004271343     -0.0000552427
 H       0.0001046777      -0.0000699130      0.0001053368
 H       0.0000386440      -0.0001297420      0.0001264538
 H      -0.0000246500      -0.0001595250     -0.0000683016
 N       0.0003427360       0.0007378398     -0.0003580410
 H       0.0000910061      -0.0001513917      0.0001498496
 H      -0.0001547754      -0.0001120393      0.0001428908
 H      -0.0002132719      -0.0002028977     -0.0001010156
 N      -0.0009689066       0.0003783759     -0.0002736105
 H       0.0000958152       0.0000458363      0.0003014041
 H       0.0002856784      -0.0000707036      0.0000784564
 H       0.0001064546       0.0000931657     -0.0000569317
 N      -0.0010131576       0.0006274297      0.0005708334
 H       0.0000513114       0.0001125747     -0.0003268207
 H       0.0001201967      -0.0000013449     -0.0000619967
 H       0.0001677979      -0.0001123884     -0.0000962870
25
terachem gradient in au, energy -418.4415047420, grad_rms 0.000650, grad_max 0.001901 on atom 1
Tc       0.0012043257      -0.0014649418     -0.0001349893
 N       0.0002049972      -0.0007060357      0.0001445350
 H      -0.0002263204       0.0002216444     -0.0000113975
 H       0.0001091753       0.0002411518      0.0002677373
 H       0.0001136457       0.0001939286     -0.0001817828
 N      -0.0006364713       0.0000472751      0.0000269323
 H       0.0001356413       0.0002884173     -0.0000602389
 H       0.0002587360      -0.0001327593      0.0001918138
 H       0.0001926870      -0.0001601430     -0.0002415092
 N      -0.0000883809       0.0007617528      0.0000888498
 H       0.0002226046      -0.0002593674      0.0000088598
 H      -0.0001033521      -0.0002287925      0.0001873557
 H      -0.0001131757      -0.0002454301     -0.0002700391
 N       0.0004900380       0.0000321937     -0.0002480702
 H      -0.0001565521      -0.0002727841      0.0000614804
 H      -0.0001578904       0.0001597224      0.0002136568
 H      -0.0002084365       0.0000793314     -0.0001958035
 N      -0.0006971582       0.0009560966     -0.0002642924
 H      -0.0002096159      -0.0001049870      0.0002298974
 H       0.0000040801      -0.0002980166     -0.0000039808
 H       0.0002474959       0.0000391410      0.0000957389
 N      -0.0003401946       0.0010710459      0.0006456325
 H      -0.0002797107      -0.0000315074     -0.0001908303
 H       0.0002243177       0.0000856070     -0.0002299851
 H      -0.0001904880      -0.0002725415     -0.0001295676
25
terachem gradient in au, energy -418.4415598364, grad_rms 0.000783, grad_max 0.002651 on atom 1
Tc       0.0019759657      -0.0017673127     -0.0000455814
 N      -0.0002068904      -0.0004375761      0.0002565200
 H      -0.0001492184       0.0002159863     -0.0000100856
 H       0.0002026445       0.0001143796      0.0002026601
 H       0.0002195621       0.0000624412     -0.0001338277
 N      -0.0003126419       0.0003578236     -0.0000315123
 H       0.0001854059       0.0002091451     -0.0000243872
 H       0.0000790780      -0.0002258462      0.0001752677
 H       0.0000226322      -0.0002831236     -0.0001910488
 N      -0.0000097817       0.0005881079      0.0000749307
 H       0.0001700301      -0.0002586813     -0.0000287280
 H      -0.0001413295      -0.0001623899      0.0001350390
 H      -0.0001271762      -0.0001598093     -0.0002583402
 N       0.0001991229      -0.0006220800     -0.0001366309
 H      -0.0002324625      -0.0001880922      0.0000436334
 H      -0.0000495525       0.0003221584      0.0001327796
 H      -0.0000519598       0.0002206385     -0.0001312108
 N      -0.0007300416       0.0014364167     -0.0003931884
 H      -0.0003275406      -0.0002163135      0.0002374323
 H      -0.0002450081      -0.0003269769     -0.0000658547
 H       0.0002154559      -0.0000280598      0.0001478977
 N      -0.0000771736       0.0014442577      0.0003517607
 H      -0.0003523712      -0.0001670271      0.0000327418
 H       0.0001544671       0.0001037707     -0.0002516667
 H      -0.0004112148      -0.0002318386     -0.0000886007
25
terachem gradient in au, energy -418.4406922307, grad_rms 0.004183, grad_max 0.009238 on atom 14
Tc       0.0017800465       0.0032270928     -0.0010676779
 N      -0.0077622299       0.0000220560     -0.0008219148
 H       0.0008076521       0.0004793171      0.0003686928
 H       0.0018900015      -0.0010374211     -0.0009496398
 H       0.0021458571      -0.0011525198      0.0001666925
 N       0.0032524432       0.0032099440      0.0008628570
 H       0.0002910598      -0.0008777657      0.0004826392
 H      -0.0025599826      -0.0016855071      0.0002024593
 H      -0.0029360323      -0.0021528710      0.0001913050
 N       0.0045423055       0.0016938457      0.0035301749
 H      -0.0004461452      -0.0006594347     -0.0006981955
 H      -0.0005638861       0.0003401862     -0.0000326927
 H      -0.0007104432       0.0003558846     -0.0000663514
 N      -0.0037104226      -0.0084527147      0.0003579125
 H      -0.0007634082       0.0008519271     -0.0003364142
 H       0.0013959774       0.0028729747     -0.0008349119
 H       0.0020352149       0.0020888702      0.0013063214
 N       0.0056317853       0.0019152864      0.0014730696
 H      -0.0019730824      -0.0014826350     -0.0035505254
 H      -0.0018554872       0.0002440608      0.0015224071
 H      -0.0003988974      -0.0020862136      0.0010027342
 N       0.0048146017       0.0028679441     -0.0052994970
 H      -0.0010815143      -0.0022511730      0.0034248202
 H      -0.0010143522      -0.0000594015     -0.0008604076
 H      -0.0028110601       0.0017282666     -0.0003738576
25
terachem gradient in au, energy -418.4418176047, grad_rms 0.002220, grad_max 0.005074 on atom 14
Tc       0.0026695128      -0.0012095546     -0.0011516878
 N      -0.0036348476       0.0005755173      0.0002305839
 H       0.0003758636       0.0002668058      0.0000848315
 H       0.0009028085      -0.0006742135     -0.0003653313
 H       0.0010277872      -0.0007297805      0.0001294266
 N       0.0018243783       0.0021816181     -0.0000607895
 H       0.0002374071      -0.0004402554      0.0002221553
 H      -0.0011200100      -0.0008482407      0.0000772052
 H      -0.0013153277      -0.0011775614      0.0001547962
 N       0.0019681993       0.0003976860      0.0014717919
 H      -0.0001790264      -0.0003872090     -0.0002786744
 H      -0.0004001459       0.0002138448     -0.0001016065
 H      -0.0002858056       0.0002795549     -0.0001187985
 N      -0.0018950103      -0.0046780048      0.0005161656
 H      -0.0004734925       0.0004433048     -0.0001304135
 H       0.0006859633       0.0014603331     -0.0004601810
 H       0.0010007786       0.0010792199      0.0004347211
 N       0.0018744097       0.0026569273      0.0017724166
 H      -0.0007176373      -0.0010490164     -0.0016797394
 H      -0.0011026902      -0.0000469036     -0.0000291815
 H      -0.0001472123      -0.0008963116      0.0004262697
 N       0.0015156835       0.0030669292     -0.0022433747
 H      -0.0006322407      -0.0011165302      0.0015352272
 H      -0.0004564352       0.0001215647     -0.0003935577
 H      -0.0017229101       0.0005102738     -0.0000422583
25
terachem gradient in au, energy -418.4420952406, grad_rms 0.001643, grad_max 0.004209 on atom 1
Tc       0.0035158212      -0.0023010631     -0.0002479132
 N      -0.0019012618       0.0010276272      0.0005982357
 H       0.0004405827       0.0000746446     -0.0000663040
 H       0.0004909860      -0.0004802418     -0.0004063118
 H       0.0005507147      -0.0006545709      0.0002653456
 N       0.0017400088       0.0014040953      0.0003239281
 H       0.0000717931      -0.0004758720     -0.0000585836
 H      -0.0009536487      -0.0002605800     -0.0001758691
 H      -0.0008009847      -0.0005548956      0.0001787317
 N       0.0012893900      -0.0004915483      0.0005229079
 H      -0.0002972064      -0.0000810534     -0.0001370324
 H      -0.0002471901       0.0003068206     -0.0003076465
 H      -0.0001088091       0.0002415739      0.0000916514
 N      -0.0018013872      -0.0027802695     -0.0000871776
 H      -0.0001377073       0.0004703349      0.0001310129
 H       0.0005110358       0.0007903477     -0.0003615974
 H       0.0008536179       0.0004834473      0.0004487139
 N      -0.0003166021       0.0028838259      0.0000827489
 H      -0.0004518828      -0.0006795094     -0.0002725601
 H      -0.0009027788       0.0000161585     -0.0003797953
 H      -0.0002636171      -0.0004727959      0.0001675610
 N       0.0005724844       0.0018591606     -0.0014504406
 H      -0.0002611710      -0.0006666553      0.0011335020
 H      -0.0004241127       0.0000821283     -0.0000991327
 H      -0.0011680745       0.0002588917      0.0001060216
25
terachem gradient in au, energy -418.4428454848, grad_rms 0.001807, grad_max 0.003798 on atom 14
Tc       0.0022035389      -0.0016769182     -0.0002367592
 N      -0.0021839083       0.0015141995     -0.0007153786
 H       0.0009117436      -0.0000560637      0.0002369481
 H       0.0003226445      -0.0006016642     -0.0007208397
 H       0.0005769839      -0.0008542892      0.0007516851
 N       0.0031475218       0.0007562113     -0.0004708889
 H      -0.0003526415      -0.0010326857     -0.0000359854
 H      -0.0014829229       0.0004635963     -0.0004725525
 H      -0.0012114414      -0.0001204684      0.0005127650
 N       0.0027201287      -0.0008637152      0.0009281022
 H      -0.0007107132       0.0002919335     -0.0004498797
 H      -0.0002294707       0.0006881769     -0.0007555473
 H       0.0001329920       0.0002554127      0.0004076842
 N      -0.0032439642      -0.0018187757      0.0007695907
 H       0.0004436824       0.0010019275      0.0000462629
 H       0.0009473057       0.0005748836     -0.0008100359
 H       0.0011925501       0.0000082871      0.0007677660
 N      -0.0000149027       0.0013957172      0.0010228832
 H      -0.0003942680      -0.0003201295     -0.0009739134
 H      -0.0006008047       0.0006966421     -0.0002683654
 H      -0.0007466671      -0.0004184355      0.0002270293
 N       0.0003131490       0.0001710949     -0.0020781915
 H       0.0002469740      -0.0006008628      0.0015695837
 H      -0.0008950942      -0.0000452063      0.0003308796
 H      -0.0010924141       0.0005911307      0.0004171576
25
terachem gradient in au, energy -418.4421597890, grad_rms 0.003460, grad_max 0.008582 on atom 1
Tc      -0.0058471736       0.0028803007      0.0055818909
 N      -0.0012918752       0.0032138477     -0.0018798621
 H       0.0016844191      -0.0003947813      0.0007851913
 H      -0.0004925721      -0.0010626519     -0.0012597084
 H       0.0005403021      -0.0007423891      0.0014703700
 N       0.0032807158      -0.0020322278     -0.0034036552
 H      -0.0008725517      -0.0014775236     -0.0002612904
 H      -0.0021355688       0.0021405514     -0.0002634748
 H      -0.0023278893       0.0005334491      0.0009619965
 N       0.0045020357      -0.0021025859     -0.0017367900
 H      -0.0012612295       0.0013511765     -0.0011966967
 H      -0.0005891217       0.0010518007     -0.0017246705
 H       0.0017506025       0.0007133332      0.0011579411
 N      -0.0020549080       0.0005956856      0.0011237101
 H       0.0007494244       0.0012913717      0.0001688118
 H       0.0010264940       0.0001913544     -0.0015935932
 H       0.0010738035      -0.0006667862      0.0010020556
 N       0.0015149305      -0.0031870630     -0.0003279311
 H      -0.0006518689       0.0010157310     -0.0006799723
 H      -0.0000675195       0.0021902713     -0.0000717127
 H      -0.0009916690       0.0000110919      0.0006815496
 N       0.0041204667      -0.0059846959     -0.0032630974
 H       0.0001941989      -0.0003916386      0.0031193687
 H      -0.0013297571      -0.0003327063      0.0007446932
 H      -0.0005236880       0.0011950826      0.0008648765
25