46
terachem gradient in au, energy -3188.1959046985, grad_rms 0.050239, grad_max 0.143454 on atom 11
Mn       0.0308522319       0.0218755747     -0.0403325625
 C       0.0309485172       0.0287569735     -0.0566076057
 P      -0.0064119179      -0.1413123041      0.0190576282
 C      -0.0363017618       0.0170307147     -0.0225196064
 C      -0.0023788453      -0.0030103194     -0.0056058508
 C       0.0133284603      -0.0363079693     -0.0156365290
 P      -0.1216589294      -0.0014887829      0.0338881730
 C       0.0258975567       0.0305867367     -0.0578268612
 P      -0.0469848828      -0.0008246159      0.0254483857
 C       0.0315274578      -0.0144003225     -0.0067044003
 S       0.0001531658       0.1433968396     -0.0040430414
 C       0.0162624775      -0.0171253508      0.0064614115
 C      -0.0140760186      -0.0063579870      0.0009120525
 C       0.0009887972       0.0237219394      0.0009426624
 S       0.1089646290      -0.0116276792      0.0114526551
 C      -0.0127058202       0.0380177269     -0.0062546305
 P      -0.0033649493      -0.0486892661      0.0233785247
 C      -0.0209583158       0.0474347579      0.0110291071
 C      -0.0095140957      -0.0391746726      0.0172555190
 C      -0.0347567602      -0.0104651495      0.0189312643
 C       0.0450481798      -0.0231301416      0.0137991697
 H       0.0042218463       0.0043497886     -0.0075305363
 H      -0.0016888630      -0.0017947412      0.0069782000
 H       0.0134828478       0.0119476627     -0.0134512427
 H      -0.0074430656      -0.0031651478      0.0021674128
 H       0.0026016800      -0.0011115893     -0.0032393683
 H      -0.0046325749      -0.0067973151     -0.0075968476
 H      -0.0022583765      -0.0011926958      0.0100005791
 H       0.0123279702       0.0133685056     -0.0122820121
 H      -0.0037242040       0.0029844508      0.0015359800
 H      -0.0012098545      -0.0024677897      0.0026548922
 H      -0.0023941934      -0.0010992832      0.0026200612
 H       0.0026198922      -0.0042552112      0.0013508320
 O       0.0005524460       0.0015751773     -0.0381888269
 C       0.0005163973      -0.0014313193      0.0586622719
 C      -0.0138489036      -0.0045018603     -0.0228078517
 C       0.0029217018       0.0012620838      0.0114353531
 C       0.0001317588      -0.0000062933     -0.0010234883
 C      -0.0025002522      -0.0004482639      0.0107906529
 C       0.0120802481       0.0038422372     -0.0225649869
 H       0.0010374972       0.0001348681      0.0037420810
 H      -0.0023248544      -0.0008380027     -0.0010157489
 H       0.0001343663      -0.0000480742     -0.0028420345
 H       0.0024087783       0.0008874433     -0.0012065997
 H      -0.0001215202      -0.0001620900      0.0034600258
 O      -0.0077499447      -0.0079392430      0.0513257356
46
terachem gradient in au, energy -3188.3209774852, grad_rms 0.025786, grad_max 0.079252 on atom 11
Mn       0.0134151675       0.0039663709     -0.0030802791
 C       0.0067799445       0.0114785954     -0.0324811207
 P      -0.0024676520      -0.0751142724      0.0113660280
 C      -0.0079743179       0.0063272667     -0.0087634102
 C       0.0057117195       0.0057612915     -0.0073226016
 C       0.0041564613      -0.0101128862     -0.0048823011
 P      -0.0607294676       0.0019529755      0.0266454036
 C       0.0069068576       0.0057200680     -0.0336310522
 P      -0.0063158520      -0.0070309659      0.0300613005
 C       0.0070119815      -0.0120328365     -0.0089316417
 S      -0.0064276691       0.0789457995     -0.0026590140
 C       0.0084348518      -0.0129444175      0.0082704012
 C      -0.0029949788      -0.0019615366     -0.0006797344
 C      -0.0047589490       0.0147274258      0.0031078365
 S       0.0596010514      -0.0081101706      0.0085416202
 C      -0.0115905820       0.0118287913     -0.0082882813
 P      -0.0082899287      -0.0089697805      0.0288738554
 C      -0.0086417956       0.0116963067      0.0017318914
 C      -0.0020641366      -0.0094662193      0.0030767051
 C      -0.0069192509      -0.0032881357      0.0056034362
 C       0.0091332023      -0.0092083785      0.0023607738
 H       0.0019692946       0.0019169313     -0.0027071073
 H      -0.0012833456      -0.0008861333      0.0039494737
 H       0.0069499933       0.0130036321     -0.0152275293
 H      -0.0040578521      -0.0008630904      0.0012311026
 H       0.0017414939      -0.0010494543     -0.0030529265
 H      -0.0006581457      -0.0042935747     -0.0030253839
 H       0.0008140106      -0.0009104275      0.0040803801
 H       0.0125105439       0.0065722826     -0.0142560271
 H      -0.0019438661      -0.0005584454      0.0002876591
 H      -0.0007183218       0.0004886395      0.0012761022
 H       0.0002912962      -0.0007370101      0.0013637623
 H      -0.0008990014      -0.0023568206     -0.0000959373
 O      -0.0025012767       0.0009369744     -0.0224246495
 C       0.0022244085      -0.0011240166      0.0375791641
 C      -0.0073526404      -0.0022151305     -0.0133387397
 C      -0.0011122588      -0.0001083436      0.0051074054
 C      -0.0000641176      -0.0001010671      0.0002833447
 C       0.0002367525       0.0004712195      0.0055912059
 C       0.0084593555       0.0026354609     -0.0144818966
 H       0.0009272691       0.0000326743      0.0025521509
 H      -0.0008879917      -0.0003327562     -0.0004722164
 H      -0.0000630500      -0.0001170432     -0.0004841919
 H       0.0007948145       0.0003132651     -0.0004258963
 H      -0.0009078357      -0.0003607278      0.0024543315
 O      -0.0064461865      -0.0045223304      0.0053166034
46
terachem gradient in au, energy -3188.4100380928, grad_rms 0.013155, grad_max 0.032304 on atom 11
Mn       0.0005196747      -0.0090178794      0.0154820480
 C       0.0017251640       0.0033096352     -0.0149428071
 P       0.0009791971      -0.0300593680     -0.0027888850
 C      -0.0037006590       0.0051457424     -0.0014662830
 C       0.0038896162       0.0040808683     -0.0010106151
 C       0.0031387691      -0.0052453233     -0.0020079065
 P      -0.0186230294       0.0056097322      0.0128616616
 C      -0.0017262208       0.0029925318     -0.0146782182
 P       0.0206767330      -0.0062821908      0.0202988678
 C      -0.0135170166      -0.0094165377     -0.0021732351
 S      -0.0010409278       0.0316963354     -0.0061467346
 C       0.0055785697       0.0033834261      0.0047602892
 C      -0.0030636251      -0.0057893383      0.0009400192
 C      -0.0031284934       0.0056965681      0.0023647865
 S       0.0261134318       0.0016983879      0.0014924907
 C      -0.0088195084      -0.0154622832     -0.0018224434
 P      -0.0067350791       0.0219787590      0.0223150979
 C      -0.0067559355      -0.0012477426      0.0031543945
 C       0.0005946382       0.0031114406     -0.0029747703
 C       0.0070142976       0.0019077741     -0.0026407314
 C      -0.0028026902      -0.0094024678      0.0071519047
 H      -0.0011761132      -0.0015315818      0.0006475634
 H      -0.0012930643      -0.0003023656      0.0003595933
 H      -0.0024364899       0.0075717215     -0.0135492163
 H      -0.0003883067       0.0013243372     -0.0000332408
 H      -0.0012848050      -0.0008010899     -0.0012477473
 H       0.0009859828      -0.0014197782      0.0002205625
 H       0.0025120415      -0.0003179806     -0.0002298842
 H       0.0079625053      -0.0024817548     -0.0133952385
 H      -0.0009266550      -0.0001607551     -0.0000979431
 H       0.0001828081       0.0008373466     -0.0002970794
 H       0.0008482715       0.0000425262     -0.0008003672
 H       0.0001792157      -0.0019563118     -0.0005353543
 O      -0.0026605418       0.0018190318      0.0045253540
 C       0.0003927208      -0.0007388535      0.0039931386
 C      -0.0048528706      -0.0014901206     -0.0048469664
 C       0.0049626026       0.0017352513      0.0048963647
 C      -0.0000887449       0.0000213489     -0.0092372884
 C      -0.0034206912      -0.0010839405      0.0036210568
 C       0.0025171144       0.0007100308     -0.0023812542
 H       0.0006626240       0.0000233698      0.0016510826
 H       0.0011417779       0.0003650259     -0.0000762769
 H       0.0002156976       0.0000339668     -0.0007634673
 H      -0.0010561682      -0.0003738934     -0.0003961889
 H      -0.0010300134      -0.0001738816      0.0007192616
 O      -0.0022658037      -0.0003397192     -0.0109153944
46
terachem gradient in au, energy -3188.4502745980, grad_rms 0.017262, grad_max 0.075501 on atom 1
Mn      -0.0106933750      -0.0235195611      0.0709425003
 C       0.0076496397      -0.0031319931      0.0007112597
 P       0.0016018067      -0.0135064963     -0.0077470860
 C       0.0024630683      -0.0015545059      0.0038413025
 C       0.0026644319       0.0015662558      0.0012563305
 C      -0.0016447335       0.0013878150      0.0009729435
 P      -0.0042407426       0.0036359754      0.0049214159
 C      -0.0056928133       0.0058088958      0.0009295938
 P       0.0139703241      -0.0001327289      0.0063350818
 C      -0.0074766892       0.0010813192      0.0027337688
 S      -0.0040922839       0.0240947858     -0.0111133482
 C       0.0026621783      -0.0061337705      0.0079320387
 C       0.0060022062       0.0080752058     -0.0050493008
 C      -0.0049719251      -0.0019167172      0.0059702275
 S       0.0193344364       0.0038219902     -0.0068116478
 C      -0.0018052482      -0.0114904366      0.0035351479
 P       0.0011807018       0.0143295365      0.0073202041
 C       0.0031504662      -0.0115315163     -0.0063049665
 C      -0.0041600004       0.0028956636      0.0031089694
 C       0.0032740716      -0.0047590463      0.0062965126
 C      -0.0149532348       0.0053915092     -0.0061915739
 H      -0.0005749414      -0.0011685342      0.0002318869
 H      -0.0004594707       0.0001958842     -0.0006832183
 H      -0.0048357065       0.0040167934     -0.0061707246
 H       0.0019874780      -0.0009154898     -0.0002570802
 H       0.0005123153       0.0009851950     -0.0017294110
 H       0.0001187785       0.0015846435      0.0010972899
 H       0.0005485217       0.0014946233     -0.0005834370
 H       0.0034560708      -0.0039604820     -0.0063211473
 H       0.0006250016      -0.0006027540     -0.0011847029
 H      -0.0001273545      -0.0008211057      0.0004092914
 H      -0.0014793600      -0.0006490685      0.0004085758
 H      -0.0008082284       0.0006149262     -0.0020527263
 O      -0.0115241640      -0.0019070979     -0.0358530602
 C       0.0098449030       0.0040169598     -0.0253801777
 C       0.0113756833       0.0040375987      0.0095593594
 C      -0.0170477684      -0.0055040699     -0.0186010476
 C      -0.0023337368      -0.0019013440      0.0292831702
 C       0.0146736838       0.0057319730     -0.0115167189
 C      -0.0057674109      -0.0022164133      0.0008207638
 H      -0.0007881917      -0.0002647985     -0.0029501368
 H      -0.0035133365      -0.0012857565     -0.0003925695
 H      -0.0010529220      -0.0005363729      0.0035164976
 H       0.0027996439       0.0008595078      0.0007570953
 H       0.0001072351      -0.0000125743     -0.0027862663
 O       0.0000409919       0.0037955766     -0.0132108798
46
terachem gradient in au, energy -3188.4613464513, grad_rms 0.016674, grad_max 0.035030 on atom 11
Mn      -0.0179639860      -0.0235059569     -0.0052840837
 C       0.0019047894      -0.0054026504      0.0145494172
 P      -0.0009740189       0.0183075265     -0.0110830529
 C       0.0011450607      -0.0086495401      0.0085790915
 C      -0.0023589369      -0.0025446370      0.0039316775
 C       0.0020222823       0.0103797306     -0.0008383523
 P       0.0029355842      -0.0046442686     -0.0212187853
 C       0.0084908996      -0.0025424480      0.0086363897
 P      -0.0250702935       0.0054517549      0.0063699733
 C       0.0108446218       0.0169641316     -0.0079472758
 S       0.0029615574      -0.0316126702     -0.0147967815
 C      -0.0036537137      -0.0042126661      0.0114525269
 C       0.0065195763       0.0129754466     -0.0090429161
 C       0.0023444124      -0.0090562373      0.0094640774
 S      -0.0188919217       0.0096019158     -0.0240869917
 C       0.0090803533       0.0093756468     -0.0057621444
 P       0.0120941454      -0.0273334754      0.0074436400
 C       0.0079984014      -0.0283553255     -0.0003002968
 C      -0.0027551374       0.0195163755      0.0069718294
 C       0.0050129230       0.0025218664      0.0008458051
 C      -0.0184187435       0.0153800950     -0.0133071954
 H       0.0011873175      -0.0003699018     -0.0011640338
 H       0.0014121563       0.0012369415     -0.0015531675
 H       0.0016511373       0.0054561542      0.0075025254
 H       0.0044627288      -0.0025491294     -0.0000209911
 H       0.0021321497       0.0015131942     -0.0012267583
 H      -0.0010543603       0.0041076837      0.0008505895
 H      -0.0025322358       0.0027208307     -0.0010115716
 H       0.0039269094       0.0039595756      0.0069821677
 H       0.0000284616       0.0002038639     -0.0018931877
 H      -0.0015552275      -0.0017704461     -0.0005500329
 H      -0.0022875933       0.0001773704      0.0002013145
 H       0.0004199011       0.0033664699     -0.0014646004
 O       0.0011630229      -0.0002590452      0.0047503974
 C       0.0010678146       0.0035806519     -0.0146854596
 C      -0.0058905161      -0.0048586147      0.0135729120
 C       0.0136959571       0.0041568774      0.0111669867
 C       0.0014195791       0.0028289139     -0.0262350539
 C      -0.0165856773      -0.0069871586      0.0077628572
 C       0.0044693863       0.0022016120      0.0168731914
 H      -0.0013548129      -0.0000647067     -0.0007363279
 H       0.0025509892       0.0008237873      0.0012619519
 H      -0.0002172282       0.0000802374     -0.0031255475
 H      -0.0031117995      -0.0014907020      0.0006754291
 H       0.0028947724       0.0001360149      0.0012556880
 O       0.0088393118       0.0091849105      0.0162341688
46
terachem gradient in au, energy -3188.4805325585, grad_rms 0.011597, grad_max 0.031408 on atom 1
Mn      -0.0179255573      -0.0204364719      0.0157315358
 C      -0.0076815394      -0.0042905629      0.0150916421
 P      -0.0004058977       0.0116855471     -0.0101622034
 C      -0.0057110480      -0.0028751505      0.0030115884
 C      -0.0022998657      -0.0010564801      0.0001403315
 C       0.0042325589      -0.0007755364     -0.0020762774
 P       0.0014399201      -0.0039386642     -0.0224798028
 C       0.0068446209      -0.0041482983      0.0089178506
 P      -0.0095949272       0.0017564409     -0.0029158707
 C       0.0021534134      -0.0042550696      0.0009897958
 S       0.0017829572      -0.0056758493     -0.0137298877
 C       0.0011461141       0.0069862888      0.0034482612
 C      -0.0063412023      -0.0040631265      0.0007659978
 C       0.0061472789      -0.0020512024      0.0047203678
 S      -0.0002133044       0.0019421474     -0.0180504840
 C       0.0050873775       0.0031470801      0.0004008798
 P      -0.0019523360      -0.0058620498     -0.0089460415
 C      -0.0056075570      -0.0075195008      0.0130946363
 C       0.0061069688       0.0176734236     -0.0031975084
 C       0.0064642856       0.0092591949     -0.0095512943
 C       0.0021920957      -0.0008371156      0.0058565264
 H       0.0002295910      -0.0003132018     -0.0008498923
 H       0.0013498336       0.0011669984     -0.0008722021
 H       0.0035822836      -0.0007157430      0.0039139560
 H       0.0002839612       0.0009709797      0.0000667115
 H      -0.0007719496      -0.0010703942      0.0011234660
 H      -0.0007303030       0.0006618051      0.0005029053
 H      -0.0006544837      -0.0000621599     -0.0003612651
 H       0.0006556789       0.0051168529      0.0036744505
 H      -0.0014836630       0.0019821958     -0.0000085112
 H      -0.0001847068       0.0003154799     -0.0015871940
 H       0.0004791739       0.0009499835     -0.0009103735
 H       0.0022255387       0.0002665391      0.0016554577
 O       0.0058553849       0.0010997170      0.0153737955
 C      -0.0036524944       0.0002182892      0.0046552205
 C       0.0099256295       0.0026106497     -0.0045579582
 C      -0.0133319705      -0.0039916953     -0.0089314203
 C      -0.0012220931      -0.0022816722      0.0197642894
 C       0.0177535434       0.0069542072     -0.0090658389
 C      -0.0154074240      -0.0039452526     -0.0015205703
 H       0.0008623233       0.0007397479     -0.0013556963
 H      -0.0019221009      -0.0006711936     -0.0001958908
 H       0.0002974234      -0.0002129668      0.0025090674
 H       0.0021854816       0.0006578136     -0.0005260721
 H       0.0001702880      -0.0001532484     -0.0015514608
 O       0.0076406981       0.0050412249     -0.0020050175
46
terachem gradient in au, energy -3188.4929918593, grad_rms 0.012257, grad_max 0.044683 on atom 1
Mn      -0.0127170710      -0.0152150595      0.0400421871
 C       0.0018567625       0.0092280297     -0.0018154053
 P       0.0036081172      -0.0081705435     -0.0068248237
 C       0.0014074255       0.0030740348     -0.0030327737
 C      -0.0001920731      -0.0004835793     -0.0012930021
 C       0.0026899259      -0.0017887014     -0.0000482343
 P      -0.0147264677       0.0094330349     -0.0111949661
 C       0.0031263565       0.0064969736      0.0018241567
 P       0.0177614230      -0.0101849823     -0.0109297837
 C      -0.0055434443      -0.0008689482      0.0073549897
 S      -0.0082267158       0.0157594414     -0.0089643943
 C       0.0022540131       0.0043403950      0.0031075927
 C      -0.0019937175      -0.0060240186      0.0008344449
 C      -0.0000298845       0.0038616033      0.0016145295
 S       0.0237287153      -0.0015981433     -0.0122459147
 C      -0.0116918042      -0.0091056479      0.0083628528
 P       0.0012060229       0.0127109185     -0.0062268054
 C      -0.0002971003      -0.0006998868     -0.0019358717
 C      -0.0032242061      -0.0036040485      0.0079423658
 C      -0.0047297636      -0.0018929657      0.0079103524
 C       0.0039359423      -0.0010168964     -0.0013560540
 H      -0.0010370561      -0.0012274334     -0.0000960082
 H       0.0007895886       0.0010999453     -0.0002030494
 H       0.0015224795      -0.0013992358     -0.0028819243
 H      -0.0021284222       0.0014620578      0.0003121009
 H      -0.0008302796      -0.0006087459      0.0007763121
 H      -0.0003321664      -0.0010068895     -0.0000922581
 H       0.0010527759      -0.0011451403      0.0001124263
 H      -0.0022734604      -0.0014454427     -0.0024842209
 H       0.0001394256      -0.0001959475     -0.0007018135
 H       0.0001397297      -0.0011857316      0.0001587004
 H      -0.0000553314      -0.0006825256      0.0007086159
 H      -0.0006635781      -0.0005465090      0.0002667669
 O      -0.0035733203      -0.0024466022      0.0164639768
 C       0.0052988336       0.0030485417     -0.0064109848
 C      -0.0058241527      -0.0027053054      0.0038537645
 C       0.0085396825       0.0024925415      0.0066669920
 C       0.0015844096       0.0016458320     -0.0150189200
 C      -0.0124742409      -0.0051449976      0.0066901701
 C       0.0111026990       0.0046937695     -0.0008228696
 H      -0.0007647108      -0.0002355793      0.0009307248
 H       0.0011328536       0.0003474790      0.0000492061
 H      -0.0003296899      -0.0000369923     -0.0015071401
 H      -0.0015455770      -0.0005754279      0.0000096714
 H      -0.0008317390      -0.0004338459      0.0010161357
 O       0.0031587914       0.0019811744     -0.0209218178
46
terachem gradient in au, energy -3188.5053403131, grad_rms 0.008321, grad_max 0.033470 on atom 1
Mn      -0.0149261455      -0.0132318250      0.0268764049
 C       0.0001780835       0.0068068970     -0.0011882799
 P       0.0041839223      -0.0050653942     -0.0044865019
 C       0.0006533758       0.0012061848     -0.0015357822
 C      -0.0012303829      -0.0008902040      0.0011740809
 C      -0.0006955712      -0.0026575857      0.0017901002
 P      -0.0082256057       0.0054603133     -0.0078661717
 C       0.0040317809       0.0026230424     -0.0006634933
 P       0.0050638648       0.0029068942     -0.0018541556
 C      -0.0035574040      -0.0056978480      0.0064537946
 S      -0.0046449881       0.0101073294     -0.0119615255
 C       0.0024419616      -0.0024641985      0.0040677662
 C       0.0029138669       0.0019526631     -0.0021024633
 C      -0.0030635149       0.0021269617      0.0040099183
 S       0.0125459960      -0.0030808586     -0.0157701737
 C      -0.0068194036      -0.0032683118      0.0080040951
 P       0.0028170433       0.0050269737     -0.0026559530
 C       0.0009036429       0.0016574787     -0.0025473522
 C       0.0007168294      -0.0032330550      0.0017478317
 C      -0.0032557908       0.0004996160      0.0032375124
 C       0.0028752112      -0.0004240559     -0.0019674364
 H      -0.0016379878      -0.0013099078     -0.0003685344
 H       0.0011988703       0.0011987643     -0.0009083384
 H      -0.0008741934      -0.0006448411     -0.0011989954
 H      -0.0005849793      -0.0000300985      0.0003508574
 H       0.0004526279       0.0007200162     -0.0000100182
 H       0.0002305823       0.0001068960      0.0000817308
 H       0.0002554013      -0.0002951433     -0.0001436891
 H      -0.0001283434      -0.0020605182     -0.0015459505
 H       0.0008159270      -0.0000913596     -0.0004239039
 H       0.0007719563      -0.0003154001     -0.0000480661
 H       0.0001902932      -0.0000171584     -0.0000284351
 H      -0.0006682163      -0.0000327351     -0.0002222677
 O       0.0048433568      -0.0000461259      0.0191292417
 C      -0.0016438811      -0.0001473580     -0.0031167254
 C      -0.0004546919      -0.0001709908     -0.0020184396
 C       0.0045819424       0.0015030803      0.0019768600
 C      -0.0002814732       0.0003658998     -0.0055721638
 C      -0.0030427940      -0.0011913442      0.0009583675
 C      -0.0018293260      -0.0006054740      0.0008599281
 H       0.0003782795       0.0000515908      0.0009292417
 H       0.0007321923       0.0002092395     -0.0001313855
 H       0.0002656352       0.0000952275     -0.0004578736
 H      -0.0006012798      -0.0001478870     -0.0002466786
 H      -0.0005313645      -0.0000462873      0.0002832691
 O       0.0046546942       0.0025408971     -0.0108902466
46
terachem gradient in au, energy -3188.5191796593, grad_rms 0.011686, grad_max 0.034787 on atom 46
Mn      -0.0038017454       0.0010956351     -0.0333133717
 C      -0.0040965764      -0.0041437429      0.0011092500
 P       0.0033815721       0.0064457470      0.0006134751
 C      -0.0076316973      -0.0018536281     -0.0020423231
 C      -0.0025392049      -0.0011217625      0.0061504492
 C      -0.0060044591      -0.0092233999      0.0031833080
 P       0.0071921264      -0.0019432280     -0.0018445064
 C      -0.0085608062      -0.0125280590      0.0033287887
 P      -0.0087037768       0.0123162362      0.0091262319
 C       0.0068440271       0.0075414821     -0.0005482325
 S       0.0007345999      -0.0109420687     -0.0123169004
 C       0.0036000068       0.0036509241      0.0017376071
 C      -0.0011429862      -0.0002314281     -0.0006797021
 C       0.0001028556       0.0022615992      0.0070904695
 S      -0.0087359339      -0.0037488524     -0.0197061069
 C       0.0123217329       0.0122090859      0.0007309545
 P      -0.0033019226      -0.0108660914      0.0061638827
 C      -0.0004849344       0.0123676064      0.0046356556
 C       0.0090218931      -0.0023772856     -0.0145488443
 C       0.0056565380       0.0043520204     -0.0098855345
 C       0.0016667736      -0.0024895519      0.0081103634
 H      -0.0018769410      -0.0008747904     -0.0018464055
 H       0.0026447618       0.0016456618     -0.0020744110
 H      -0.0014887065       0.0033020060      0.0019755742
 H       0.0012572770      -0.0004030583      0.0001131862
 H       0.0001327334       0.0004151275      0.0002066680
 H       0.0014755239       0.0002116405     -0.0002472048
 H      -0.0005141345      -0.0002651451     -0.0003194472
 H       0.0046048057      -0.0006333428      0.0004311692
 H       0.0006418994       0.0007102226      0.0018492504
 H       0.0014549886       0.0019050535     -0.0002837813
 H       0.0012433810       0.0012872716     -0.0017042929
 H       0.0005434856       0.0002776701      0.0003081314
 O       0.0019035068      -0.0038851549      0.0115390167
 C       0.0009193920       0.0009871738     -0.0127384012
 C       0.0043406539       0.0012958960      0.0070868778
 C      -0.0036497598      -0.0009565865     -0.0067146364
 C      -0.0005202554      -0.0010787121      0.0123319878
 C       0.0049948695       0.0027668257     -0.0077295263
 C      -0.0070779825      -0.0034910711      0.0070549402
 H      -0.0007408110      -0.0005346705     -0.0011805155
 H      -0.0009390062      -0.0004291400      0.0006743192
 H       0.0000263211      -0.0000298360      0.0009734476
 H       0.0010162943       0.0005558479      0.0006283454
 H       0.0016642679       0.0010097847     -0.0010738973
 O      -0.0075746480      -0.0045599121      0.0336446917
46
terachem gradient in au, energy -3188.5298403692, grad_rms 0.007641, grad_max 0.022525 on atom 46
Mn      -0.0038451943       0.0024572651     -0.0191533020
 C       0.0016413960      -0.0027094018     -0.0021059544
 P       0.0024009033       0.0059882777      0.0001036719
 C      -0.0006728136      -0.0018660718     -0.0006429710
 C      -0.0012997444      -0.0005201370      0.0026853460
 C      -0.0039049775      -0.0000241487      0.0024528134
 P       0.0048173328       0.0006539412      0.0000356102
 C      -0.0052660780      -0.0055399298      0.0016037377
 P      -0.0064880592       0.0087300899      0.0076410564
 C       0.0010250160       0.0011539416     -0.0019099818
 S       0.0015512337      -0.0002627184     -0.0055571997
 C       0.0025876913       0.0003786269     -0.0021616686
 C       0.0023442327       0.0004313272     -0.0001174382
 C      -0.0003142018       0.0027242776      0.0034245463
 S      -0.0004368240      -0.0006209384     -0.0111468183
 C       0.0034176169       0.0050952883     -0.0006513367
 P       0.0006278584      -0.0068134572      0.0055509204
 C       0.0037575986       0.0077382545     -0.0043953025
 C       0.0007655686      -0.0087136427     -0.0027949053
 C       0.0007418167      -0.0009519834      0.0015568667
 C      -0.0030848795       0.0000853462      0.0009638330
 H      -0.0006415876       0.0000008914     -0.0019403677
 H       0.0018427176       0.0011911571     -0.0014157110
 H      -0.0005387790       0.0005160463      0.0003419368
 H       0.0003669849      -0.0009027699      0.0001858571
 H       0.0005735216       0.0001311359      0.0006377933
 H       0.0002036908      -0.0003518991     -0.0007460550
 H       0.0000846095      -0.0001401863      0.0002053544
 H       0.0011006320      -0.0001153605     -0.0004801104
 H       0.0005565874      -0.0009544111      0.0006351418
 H       0.0000564265       0.0002942095      0.0011374001
 H      -0.0002098253       0.0004055711      0.0000676538
 H      -0.0003680531       0.0001751864     -0.0004151356
 O       0.0128703381       0.0028920901      0.0135140637
 C      -0.0113265679      -0.0054513065     -0.0037791976
 C       0.0058387981       0.0022367403     -0.0066376877
 C      -0.0018773556      -0.0006083770     -0.0026050755
 C       0.0002946543       0.0002620857      0.0037377952
 C       0.0030763905       0.0015802678     -0.0059528223
 C      -0.0113606160      -0.0054246499      0.0079782663
 H       0.0013963012       0.0005598730     -0.0002139865
 H      -0.0000839033       0.0000789865     -0.0002987907
 H       0.0005566948       0.0003497200     -0.0000016439
 H       0.0005214933       0.0003961233     -0.0000750885
 H       0.0005547278       0.0003807815     -0.0009023419
 O      -0.0038533735      -0.0049161126      0.0216412286
46
terachem gradient in au, energy -3188.5351871412, grad_rms 0.004640, grad_max 0.016797 on atom 1
Mn      -0.0132508780      -0.0099066985      0.0028987524
 C       0.0002507691      -0.0005307555      0.0004632169
 P       0.0011200687       0.0011079558     -0.0014361911
 C      -0.0005744408      -0.0007350173      0.0009185810
 C       0.0007488941       0.0006333509      0.0036250406
 C       0.0005453802       0.0015609371     -0.0006962200
 P      -0.0019592112       0.0013555811     -0.0018428240
 C       0.0030360787      -0.0002067387      0.0011237320
 P      -0.0017966736       0.0001857582      0.0026529041
 C      -0.0029172024      -0.0058970429     -0.0013434272
 S       0.0005411333       0.0070511626     -0.0000717199
 C      -0.0000955187      -0.0050491283     -0.0021491784
 C       0.0037625286       0.0031824442      0.0010077328
 C      -0.0004318004       0.0005282705     -0.0002840683
 S       0.0043103502       0.0002127729      0.0004655654
 C      -0.0025851489      -0.0036217595     -0.0008561265
 P       0.0004554167       0.0026426446      0.0003082256
 C       0.0018730535       0.0018703619     -0.0031206485
 C       0.0012068407      -0.0019583539     -0.0001481458
 C       0.0011628301       0.0008152300     -0.0003654984
 C      -0.0022953393       0.0005359180      0.0000200553
 H      -0.0000842681      -0.0001308132     -0.0009932399
 H       0.0011346008       0.0009933989     -0.0001967176
 H      -0.0001054077      -0.0015259315     -0.0008536602
 H      -0.0002291123      -0.0009642225      0.0001811201
 H       0.0008745946       0.0004191493     -0.0000859026
 H      -0.0007252873      -0.0001639804     -0.0001719098
 H       0.0000508741       0.0005779583      0.0005985452
 H      -0.0013280847       0.0004869141     -0.0007208387