60
terachem gradient in au, energy -1347.4373201512, grad_rms 0.023082, grad_max 0.068483 on atom 1
Mn      -0.0282592555      -0.0266476585      0.0564030638
 C       0.0356593467       0.0044644027     -0.0053532514
 N      -0.0104629948       0.0273584399     -0.0078545825
 C      -0.0356621483       0.0082998914      0.0019607537
 C       0.0120285845       0.0128416999      0.0019005384
 C       0.0029566218      -0.0397812842     -0.0062355040
 N       0.0261040644       0.0000920569     -0.0029108787
 C       0.0126161862       0.0278292448      0.0029976575
 C       0.0010935620       0.0002821985     -0.0067816537
 C      -0.0079870838       0.0176373104     -0.0090875869
 N       0.0246192589       0.0207105071      0.0038032275
 C       0.0127281198       0.0023424837     -0.0283574662
 C       0.0030315223       0.0275126951      0.0061554113
 N       0.0236357040       0.0100320917      0.0111559167
 C       0.0214845501      -0.0124330024     -0.0017012727
 C      -0.0022604634       0.0044482201     -0.0007765523
 C      -0.0002165824      -0.0066022113      0.0241471959
 C      -0.0057600296       0.0051424989      0.0178059995
 C      -0.0214548996       0.0130595933     -0.0006889381
 C      -0.0223152067      -0.0183101398     -0.0012603704
 C      -0.0179418518      -0.0212007221     -0.0029132200
 C       0.0190939568      -0.0191052063     -0.0047862011
 H       0.0003032499      -0.0009870566      0.0092402993
 H      -0.0010701051       0.0012461895     -0.0077235481
 H       0.0051736370      -0.0028517278      0.0075678723
 H       0.0083914168       0.0027655020     -0.0059430482
 H       0.0006812685      -0.0051656251      0.0081120307
 H       0.0035834979      -0.0081751121      0.0028339542
 H      -0.0081902313       0.0022158597      0.0089734699
 H      -0.0027019659      -0.0075979140      0.0054388297
 H      -0.0115585015      -0.0049733047      0.0004538677
 H      -0.0024560710      -0.0158319943     -0.0053772397
 H      -0.0091675145       0.0009816850      0.0018133742
 H      -0.0084312916       0.0031023083      0.0032182718
 H       0.0021218343       0.0092602796     -0.0078957901
 H      -0.0042876658       0.0032954906      0.0066851016
 H      -0.0053505979      -0.0036078501     -0.0151046801
 H       0.0037771492       0.0112502647     -0.0101312114
 H      -0.0076950983      -0.0016443659     -0.0091977534
 H       0.0069057714      -0.0029670520     -0.0111327999
 H      -0.0042442909      -0.0031789689     -0.0094262600
 H      -0.0048338032      -0.0082105039     -0.0063159790
 H       0.0007541733       0.0031356940      0.0007275309
 H       0.0011490923      -0.0026917353      0.0001100657
 H      -0.0031940570       0.0008513248      0.0012304639
 H       0.0027981525       0.0008887657      0.0006216638
 N      -0.0266088103       0.0198087165      0.0065296035
 H      -0.0044398315       0.0001535893     -0.0077461815
 C       0.0417178228      -0.0194207280      0.0299887649
 C      -0.0070425680       0.0017419809     -0.0154324140
 C       0.0064073039      -0.0021311144      0.0110685230
 C      -0.0048508957       0.0021730818     -0.0038701857
 C       0.0111183586      -0.0040519809      0.0017665143
 C      -0.0056620642       0.0024474001     -0.0166802468
 H       0.0035167437      -0.0012476603      0.0028431297
 H       0.0021887931      -0.0012492435     -0.0022150993
 H      -0.0013582936       0.0001544125     -0.0027831502
 H      -0.0018014187       0.0004071990      0.0023022230
 H      -0.0052459580       0.0008648261      0.0264563690
 O      -0.0131281941      -0.0087337413     -0.0486286212
60
terachem gradient in au, energy -1347.4706986847, grad_rms 0.011329, grad_max 0.046834 on atom 1
Mn      -0.0259425064      -0.0266448754      0.0284692968
 C       0.0076073576      -0.0080818291     -0.0051932949
 N      -0.0021289431       0.0126549339     -0.0092639280
 C      -0.0044026303      -0.0018491495      0.0021782366
 C       0.0061921767       0.0061620755      0.0019321399
 C      -0.0015583668      -0.0110279281     -0.0029584960
 N       0.0064317637       0.0003687777     -0.0011256288
 C      -0.0030728776       0.0067487573      0.0062300904
 C      -0.0017796882      -0.0040585685     -0.0044699623
 C      -0.0051663886       0.0107235935     -0.0076712185
 N       0.0217559813       0.0125808145     -0.0012306185
 C       0.0091994483       0.0009502190     -0.0217074594
 C       0.0007248707       0.0179540289      0.0041927005
 N       0.0147397157       0.0092231837      0.0032546250
 C       0.0125959394      -0.0059877004     -0.0056068367
 C      -0.0063772457       0.0016626555     -0.0003140615
 C      -0.0012151396      -0.0027816257      0.0128741855
 C      -0.0038257379       0.0010353611      0.0112415527
 C      -0.0036980095       0.0041395023     -0.0016266269
 C       0.0044257601       0.0008452095      0.0009414539
 C      -0.0008221590      -0.0002180659     -0.0005711765
 C       0.0028977721       0.0003625481     -0.0029004636
 H      -0.0013446962      -0.0024267724      0.0035113529
 H      -0.0020718900      -0.0010373042     -0.0037917210
 H       0.0001615962      -0.0003202194      0.0039914462
 H       0.0045310100       0.0016949095     -0.0020382529
 H       0.0001949741      -0.0043554387      0.0032381457
 H       0.0019945590      -0.0026808708      0.0024480058
 H      -0.0063782900       0.0010791871      0.0032153098
 H      -0.0012958097      -0.0016826674      0.0042807098
 H      -0.0048173703      -0.0035807322     -0.0026077546
 H      -0.0004403541      -0.0077339177     -0.0000499007
 H      -0.0065701647       0.0006169019      0.0014785470
 H      -0.0030226040       0.0021574161      0.0023984698
 H       0.0021016316       0.0040941292     -0.0022803339
 H      -0.0010672528      -0.0001047517      0.0025170588
 H      -0.0037162503      -0.0013639459     -0.0055403063
 H       0.0010122971       0.0022216055     -0.0035129386
 H      -0.0025805594      -0.0012879987     -0.0036191696
 H       0.0021627986      -0.0021318017     -0.0034253044
 H      -0.0015435821      -0.0017459732     -0.0034484211
 H      -0.0022883693      -0.0023729460     -0.0022746828
 H       0.0007224411       0.0017222652      0.0004341272
 H       0.0014817054      -0.0008387701      0.0003264050
 H      -0.0012480530       0.0008793403      0.0011530243
 H       0.0011748804       0.0007103975      0.0005534103
 N      -0.0034315638       0.0075738874      0.0093342644
 H       0.0013627516      -0.0013745503      0.0018878637
 C       0.0100855311      -0.0053580527      0.0151568075
 C       0.0014691081      -0.0010775423     -0.0059652649
 C       0.0023904203      -0.0009385229      0.0017345847
 C       0.0022281822      -0.0005541633      0.0039442806
 C      -0.0035685280       0.0026343595      0.0022254704
 C      -0.0105321913       0.0041013125     -0.0147742292
 H       0.0019397933      -0.0005387953      0.0018159206
 H       0.0013083087      -0.0005794699     -0.0004983201
 H       0.0001194221      -0.0002777811      0.0002986937
 H      -0.0016075721       0.0001519422      0.0011374050
 H       0.0012784253      -0.0036709510     -0.0013121647
 O      -0.0067758278      -0.0063656335     -0.0186170473
60
terachem gradient in au, energy -1347.4770981486, grad_rms 0.009633, grad_max 0.040798 on atom 1
Mn      -0.0269023615      -0.0254090939      0.0171789736
 C       0.0023224724      -0.0076705514     -0.0048717576
 N       0.0009026394       0.0076131771     -0.0095547761
 C       0.0016050076      -0.0039854438      0.0022119112
 C       0.0046657869       0.0045421397      0.0020816864
 C      -0.0042494709      -0.0019767372     -0.0013208104
 N       0.0034452751       0.0051979479     -0.0069884677
 C      -0.0027729623       0.0018873844      0.0004840207
 C      -0.0020381030      -0.0051899949     -0.0048646667
 C      -0.0053365979       0.0074747953     -0.0062278033
 N       0.0209049135       0.0108777671     -0.0039621983
 C       0.0065487054       0.0012567428     -0.0196183559
 C       0.0008365955       0.0146402837      0.0041124346
 N       0.0127611729       0.0084166356      0.0005873263
 C       0.0104282500      -0.0044184670     -0.0059967694
 C      -0.0067907902       0.0006780636      0.0002895184
 C      -0.0011872113      -0.0020386345      0.0091213450
 C      -0.0029530273      -0.0003015875      0.0082380697
 C       0.0023533146      -0.0004837259     -0.0029234447
 C       0.0048596545       0.0016504987      0.0013950346
 C       0.0010858224       0.0028908698     -0.0002112591
 C      -0.0008249284       0.0047533447     -0.0024126787
 H      -0.0015894415      -0.0026825604      0.0019036133
 H      -0.0022941476      -0.0014460405     -0.0027284145
 H      -0.0009642028       0.0005413752      0.0031843611
 H       0.0035521667       0.0017388318     -0.0009147318
 H      -0.0001403986      -0.0051085391      0.0007729201
 H       0.0019633376      -0.0012019799      0.0022256213
 H      -0.0058506148       0.0007517074      0.0016694121
 H      -0.0006336407      -0.0002247472      0.0039936509
 H      -0.0030949776      -0.0031831303     -0.0033370881
 H       0.0000222526      -0.0055523857      0.0014692571
 H      -0.0055224947       0.0008474856      0.0020347874
 H      -0.0014241071       0.0019403147      0.0021471813
 H       0.0022491762       0.0028248949     -0.0008587027
 H       0.0000939832      -0.0008665059      0.0013680076
 H      -0.0036201017      -0.0004521717     -0.0027601946
 H       0.0002685594      -0.0001833102     -0.0015821675
 H      -0.0010314523      -0.0010955183     -0.0022346393
 H       0.0005981679      -0.0019087666     -0.0012131992
 H      -0.0006276592      -0.0015453965     -0.0018987042
 H      -0.0016164937      -0.0006631279     -0.0012917342
 H       0.0008747066       0.0008923496      0.0004049795
 H       0.0007719665      -0.0008724179      0.0003061263
 H      -0.0008788015       0.0006487251      0.0011293438
 H       0.0007535358       0.0006610919      0.0004921653
 N      -0.0002410426       0.0076451715      0.0213902046
 H      -0.0011330037      -0.0006295006      0.0007089253
 C       0.0117204630      -0.0073144605      0.0075786383
 C      -0.0042528821       0.0014169836     -0.0086402957
 C       0.0005391030      -0.0001074398      0.0005231617
 C       0.0000347477       0.0001787773      0.0005990605
 C       0.0006034993       0.0004583924     -0.0001874414
 C      -0.0040106651       0.0026193599     -0.0048816135
 H       0.0003230410       0.0000878689      0.0018082278
 H       0.0001319116      -0.0000810519     -0.0002494493
 H       0.0001239627      -0.0001596846      0.0000858902
 H      -0.0003512224      -0.0003743100      0.0001327605
 H       0.0009253924      -0.0025732019      0.0054179322
 O      -0.0059367813      -0.0054324956     -0.0053151836
60
terachem gradient in au, energy -1347.4890439321, grad_rms 0.007536, grad_max 0.026840 on atom 49
Mn      -0.0153509329      -0.0088209890      0.0113716913
 C       0.0004973115      -0.0006887346     -0.0038480480
 N       0.0042553719      -0.0057010030     -0.0040101094
 C       0.0034792378      -0.0049397068      0.0036330156
 C      -0.0014511998      -0.0016890142      0.0005450306
 C      -0.0059371989       0.0092836829      0.0044102673
 N       0.0020957300       0.0026193086     -0.0057550258
 C      -0.0045376565       0.0014037429     -0.0000598039
 C      -0.0003249958      -0.0024890784     -0.0018589986
 C      -0.0016144474      -0.0001391428     -0.0025482836
 N       0.0105212138       0.0046769764     -0.0039945868
 C       0.0001163449       0.0002237375     -0.0040858555
 C       0.0010843910       0.0005748896      0.0014807955
 N       0.0035736352       0.0056601301     -0.0037064232
 C       0.0014923936       0.0005963290     -0.0015437062
 C      -0.0023230574      -0.0008954540      0.0008093544
 C      -0.0015375438       0.0009098381     -0.0035612335
 C      -0.0012437500      -0.0025930867     -0.0022826548
 C       0.0112394577      -0.0032781548     -0.0005148093
 C      -0.0012143257      -0.0037273060     -0.0022337584
 C      -0.0011443865       0.0049657769     -0.0016837099
 C      -0.0014084520       0.0067791459      0.0016988013
 H      -0.0009410465      -0.0008393909     -0.0010392778
 H      -0.0004430892      -0.0003171103      0.0007616399
 H      -0.0012125865       0.0014757605      0.0005864477
 H      -0.0001253999      -0.0000115243      0.0016691868
 H      -0.0005627835      -0.0023093275     -0.0011084807
 H       0.0000760341       0.0009176670      0.0000324522
 H      -0.0004530917      -0.0005828633     -0.0008245191
 H       0.0003741424       0.0013050943      0.0023476173
 H       0.0007858491      -0.0009795784     -0.0015566978
 H      -0.0002789867       0.0012828995      0.0020487487
 H       0.0013540173       0.0002963209      0.0001189555
 H       0.0006393899      -0.0002628153     -0.0002000880
 H       0.0007805535      -0.0007336511      0.0020484234
 H       0.0020454515      -0.0009146558     -0.0004596120
 H      -0.0007756176       0.0005736239      0.0021448505
 H      -0.0002368986      -0.0023135634      0.0006878982
 H       0.0013898528      -0.0000204091      0.0012649085
 H      -0.0011594725      -0.0011315128      0.0016347704
 H       0.0013701197       0.0002047729      0.0009826303
 H      -0.0001006454       0.0016335116      0.0007609766
 H       0.0004989104      -0.0007525110      0.0001224577
 H      -0.0010502984      -0.0006630048     -0.0003882772
 H      -0.0001076646      -0.0000540621     -0.0001751346
 H       0.0000733637       0.0000931179      0.0003396482
 N       0.0097070986       0.0053655473      0.0043786313
 H      -0.0029112182       0.0002142343     -0.0041646243
 C      -0.0167486734       0.0004564362     -0.0209679358
 C       0.0074647588      -0.0014810287      0.0080332746
 C      -0.0044033774       0.0015175923      0.0021314401
 C      -0.0049681689       0.0013484162     -0.0079287202
 C       0.0152879166      -0.0043744193     -0.0032816938
 C      -0.0088379558       0.0026054569      0.0168658061
 H       0.0002561386       0.0000572694     -0.0002750269
 H      -0.0010109694       0.0004724307      0.0009118918
 H       0.0003390125       0.0001400625     -0.0015259958
 H       0.0025358247      -0.0005903932     -0.0000144611
 H       0.0020635458       0.0015123064     -0.0022984334
 O      -0.0009811748      -0.0058725863      0.0140743749
60
terachem gradient in au, energy -1347.4910909185, grad_rms 0.007257, grad_max 0.029124 on atom 53
Mn      -0.0089815240      -0.0095510343      0.0186107398
 C      -0.0028232271       0.0006517476     -0.0033220040
 N       0.0046924388       0.0002454561     -0.0026172666
 C      -0.0001159154      -0.0010759675      0.0018612983
 C      -0.0026413119      -0.0030757940     -0.0009817067
 C       0.0010310531      -0.0006204434      0.0019067282
 N       0.0033136868       0.0003194441     -0.0079841153
 C      -0.0053208821      -0.0009402341     -0.0015479827
 C       0.0013925436       0.0007187524      0.0007649276
 C       0.0005646549      -0.0030303315     -0.0000399320
 N       0.0021438550       0.0010890068     -0.0014655790
 C      -0.0016265009       0.0008135782      0.0034183073
 C       0.0009626577      -0.0059346508     -0.0006103962
 N       0.0004967888       0.0019848302     -0.0041275998
 C      -0.0041855633       0.0009452198      0.0017404494
 C       0.0009842225       0.0001345065      0.0005991222
 C      -0.0012701892       0.0020266055     -0.0054264334
 C      -0.0012809221      -0.0016804247     -0.0052630011
 C      -0.0025857950       0.0062453942      0.0016908398
 C       0.0058456672      -0.0008657479     -0.0014825363
 C      -0.0008196253       0.0026675154     -0.0004209887
 C       0.0028312336      -0.0026936361      0.0003176147
 H       0.0001716074       0.0002855498     -0.0009566700
 H       0.0014551141       0.0007967683      0.0019487356
 H       0.0000397794       0.0009478761     -0.0002986636
 H      -0.0013343333      -0.0012466423      0.0015868735
 H       0.0002996944       0.0014382408      0.0009661326
 H      -0.0010691963       0.0005145767     -0.0013360121
 H       0.0029841690      -0.0004323614     -0.0003538632
 H       0.0000194002       0.0006934036      0.0010225224
 H       0.0013274380       0.0006758884      0.0008727180
 H      -0.0006532302       0.0028000457      0.0002185181
 H       0.0013906445       0.0001477532     -0.0012697122
 H       0.0007415100      -0.0011971544     -0.0006671823
 H      -0.0010025067      -0.0012894881      0.0011543100
 H       0.0008126122      -0.0004176442     -0.0001378508
 H       0.0007222898      -0.0000295361      0.0021319162
 H       0.0003604018      -0.0003457206      0.0009520191
 H       0.0010017898       0.0006815966      0.0017560772
 H      -0.0004740006      -0.0004559559      0.0014158212
 H       0.0014506287       0.0012095035      0.0009904328
 H       0.0000145718       0.0009817750      0.0012928140
 H      -0.0011237714       0.0001101778     -0.0000915933
 H       0.0000716441       0.0007790576     -0.0002073997
 H       0.0006851305      -0.0003163921     -0.0006344038
 H       0.0000691714      -0.0007861126     -0.0002448594
 N       0.0037430723       0.0040831829      0.0003605095
 H       0.0002513469      -0.0015582728      0.0000355134
 C      -0.0020007804      -0.0032366213     -0.0056690036
 C      -0.0035006266       0.0016721075      0.0024258688
 C       0.0029838730      -0.0005179398     -0.0092142733
 C       0.0112359265      -0.0033809015      0.0161470913
 C      -0.0281104634       0.0075459777     -0.0010239795
 C       0.0196844410      -0.0063350358     -0.0119241703
 H      -0.0011012604       0.0004335159     -0.0010365862
 H       0.0014504547      -0.0002059956     -0.0001922337
 H      -0.0000044106       0.0002032180      0.0028099247
 H      -0.0029599896       0.0011023366     -0.0004134077
 H      -0.0016015691       0.0016912024     -0.0026637815
 O      -0.0006379170       0.0045842280      0.0046273628
60
terachem gradient in au, energy -1347.4955930406, grad_rms 0.003750, grad_max 0.017898 on atom 1
Mn      -0.0089602155      -0.0075604014      0.0135238957
 C      -0.0019782994      -0.0005089922     -0.0031964325
 N       0.0039073238       0.0049333605     -0.0006318174
 C       0.0002338713       0.0000797163     -0.0004852887
 C      -0.0011474968      -0.0015341163     -0.0015039902
 C       0.0004971771      -0.0014924279     -0.0005780237
 N       0.0041815479      -0.0000152782     -0.0032176139
 C      -0.0029370974      -0.0001777521     -0.0000506225
 C       0.0008278949       0.0011354987      0.0013287202
 C       0.0010069139      -0.0013788790      0.0004563871
 N       0.0013611949       0.0000183592     -0.0011692608
 C      -0.0008095633       0.0009156923      0.0015820255
 C       0.0000130357      -0.0038390391     -0.0005764875
 N       0.0011013750       0.0014695572     -0.0032498072
 C      -0.0037319629       0.0004047435      0.0006888954
 C       0.0006069360       0.0008242734      0.0008564225
 C      -0.0006208367       0.0008415307     -0.0021862503
 C      -0.0013186015      -0.0006938853     -0.0021394310
 C      -0.0021819186       0.0041818946      0.0009576866
 C       0.0033818279      -0.0009998870      0.0000180766
 C      -0.0008121593      -0.0005718368      0.0005320243
 C       0.0016860576      -0.0018933412     -0.0007793741
 H       0.0002307492       0.0000927207      0.0003713316
 H       0.0013130807       0.0010654306      0.0012103453
 H       0.0002753767       0.0003448780     -0.0000515506
 H      -0.0002211342      -0.0010946681      0.0002377529
 H       0.0004407931       0.0011802557      0.0011325663
 H      -0.0007160023       0.0001102372     -0.0009395931
 H       0.0012987264      -0.0006802991     -0.0000165552
 H      -0.0003672943       0.0000268538      0.0007471054
 H       0.0004141072       0.0007069559      0.0010510595
 H      -0.0001581946       0.0007858044     -0.0004953495
 H      -0.0010375132       0.0000261874     -0.0006948220
 H       0.0004789259      -0.0006929825      0.0000866333
 H      -0.0010580534      -0.0000761036      0.0000215261
 H      -0.0001783792      -0.0002193345      0.0004044088
 H       0.0004530177      -0.0003797891      0.0006270562
 H       0.0003850187       0.0004179490      0.0006260444
 H       0.0001515876       0.0005391949      0.0006581327
 H       0.0002662452      -0.0003764312      0.0004267719
 H       0.0005469330       0.0010321063      0.0002492829
 H      -0.0003934175       0.0001545137      0.0005564735
 H      -0.0005896617       0.0000111676     -0.0004094335
 H       0.0002427149       0.0005980397      0.0000264435
 H       0.0004850305      -0.0003422010     -0.0002686667
 H      -0.0002196375      -0.0002901907     -0.0003745698
 N      -0.0010725826       0.0041820748      0.0026275994
 H       0.0022755233      -0.0023249863      0.0028990520
 C       0.0036443476      -0.0025910682      0.0010648743
 C      -0.0052800439       0.0014303130     -0.0013659303
 C      -0.0006028805       0.0001812160      0.0024785706
 C      -0.0032880876       0.0012108102     -0.0068429120
 C       0.0058652803      -0.0018247580      0.0006763755
 C       0.0039145339      -0.0018793597      0.0016618391
 H      -0.0006210178       0.0002518424     -0.0001815978
 H      -0.0007532688       0.0004073540     -0.0001876791
 H      -0.0002643083       0.0001751120     -0.0008986090
 H       0.0008543375      -0.0002539282     -0.0005844251
 H      -0.0009515550       0.0001659345     -0.0003701910
 O      -0.0000703030       0.0037903607     -0.0063390936
60
terachem gradient in au, energy -1347.4962738202, grad_rms 0.003432, grad_max 0.012584 on atom 1
Mn      -0.0093516269      -0.0012143814      0.0083331454
 C       0.0023885621       0.0015915736     -0.0025545114
 N       0.0013024544      -0.0016878953      0.0041493447
 C      -0.0006802139      -0.0004971491     -0.0013804005
 C       0.0000578408       0.0000372791     -0.0007227811
 C      -0.0029984215       0.0021442035     -0.0009952960
 N       0.0022106286       0.0016365509     -0.0030608298
 C       0.0015074625       0.0024964976     -0.0012878554
 C      -0.0007929651       0.0005236125      0.0001133856
 C       0.0001709322       0.0002173539      0.0010323652
 N       0.0022563433      -0.0001233309     -0.0029830750
 C      -0.0005615393       0.0010699979     -0.0016872057
 C      -0.0003658018      -0.0002880185     -0.0000140449
 N       0.0009697187       0.0010810496     -0.0005651613
 C       0.0003005512       0.0003285614     -0.0003552378
 C       0.0000515683      -0.0001374767      0.0010512287
 C       0.0003789721      -0.0010791351      0.0005722192
 C      -0.0004724221      -0.0001094105      0.0012610978
 C       0.0050224452      -0.0031438080     -0.0004896729
 C      -0.0046559375      -0.0034231193     -0.0000608097
 C      -0.0017565288      -0.0017451347     -0.0001404853
 C      -0.0014104851       0.0030277222      0.0003688248
 H      -0.0001667783      -0.0002943525      0.0011800833
 H       0.0003976897       0.0007170050      0.0004246093
 H      -0.0000188051      -0.0001476026      0.0004026987
 H       0.0006218681      -0.0004037091     -0.0008587378
 H       0.0000267203      -0.0011594385     -0.0011180829
 H       0.0000375216       0.0000386437     -0.0003148016
 H      -0.0008167058      -0.0003926887     -0.0003563856
 H      -0.0002844541      -0.0004772710      0.0006488086
 H      -0.0001177812       0.0002362568      0.0004762051
 H       0.0001875280      -0.0009007894     -0.0002704405
 H      -0.0002618565       0.0002403729      0.0007705361
 H       0.0000341241       0.0001023097     -0.0000789953
 H      -0.0003575849       0.0008695424     -0.0000285224
 H       0.0000814769       0.0000912939      0.0005894505
 H      -0.0003290023      -0.0001126844     -0.0004946114
 H       0.0000760036      -0.0000613885     -0.0000772110
 H      -0.0004389435       0.0000784812     -0.0001647745
 H       0.0009291691      -0.0004529879     -0.0001276651
 H       0.0002542458       0.0004270533     -0.0003151309
 H      -0.0006338927      -0.0002989472     -0.0003486170
 H       0.0006363777      -0.0006457372     -0.0004234080
 H      -0.0004131114      -0.0002940611     -0.0001498484
 H      -0.0001304830       0.0000050944     -0.0001487076
 H      -0.0003787895       0.0005905395     -0.0000704182
 N       0.0010176163       0.0059127981     -0.0076876146
 H      -0.0008783880      -0.0009929745     -0.0014210828
 C      -0.0038467723       0.0013036034      0.0041045469
 C       0.0077198012      -0.0030982655      0.0031729545
 C      -0.0000572781      -0.0000845600      0.0001892566
 C       0.0012950727      -0.0003320888      0.0024274786
 C      -0.0003612734       0.0001541640      0.0000930960
 C      -0.0047464096       0.0026896521      0.0031794555
 H       0.0012175815      -0.0003867576     -0.0003635517
 H       0.0009400729      -0.0002061990      0.0003086134
 H       0.0003271430      -0.0000820586      0.0002091665
 H       0.0000176929      -0.0001127053      0.0005292292
 H      -0.0007835892      -0.0002069750      0.0011569193
 O       0.0056326552      -0.0030181092     -0.0056287431
60
terachem gradient in au, energy -1347.4986674703, grad_rms 0.001713, grad_max 0.006166 on atom 1
Mn      -0.0059412489      -0.0009661624      0.0013368450
 C       0.0003582976       0.0023192116     -0.0022241838
 N       0.0018440960      -0.0036473420      0.0035851668
 C      -0.0017135457      -0.0015265660     -0.0014520330
 C      -0.0007736164      -0.0011060703      0.0001030993
 C      -0.0000936921       0.0007691732     -0.0008385649
 N       0.0004486991      -0.0016600155     -0.0004267922
 C      -0.0021216067       0.0015091264     -0.0011877676
 C      -0.0003965557       0.0003264385      0.0001418379
 C       0.0006921289       0.0000951622      0.0009026800
 N      -0.0002891226      -0.0003752326     -0.0015527766
 C      -0.0002896191       0.0004978679     -0.0003141129
 C      -0.0004003822      -0.0009085615     -0.0001798709
 N       0.0002347162       0.0002796261     -0.0008262718
 C       0.0000889622       0.0001810678     -0.0001019961
 C       0.0003055495      -0.0008655715      0.0007659834
 C       0.0005775303      -0.0004520052      0.0000018302
 C      -0.0000986567       0.0004593799      0.0002313342
 C       0.0018446020       0.0006260062      0.0010113055
 C      -0.0001151030      -0.0008107477     -0.0006413051
 C      -0.0005679049       0.0016734232     -0.0002898070
 C      -0.0001675958       0.0003783429      0.0005106674
 H      -0.0002552366      -0.0003210823      0.0007624130
 H       0.0002579744       0.0006039904      0.0007236616
 H      -0.0001088174      -0.0000688153      0.0001114237
 H       0.0004384376      -0.0004065579     -0.0001377342
 H      -0.0000084259      -0.0001069276     -0.0005408031
 H       0.0000861908       0.0001944223     -0.0002596593
 H      -0.0000190570       0.0000955074     -0.0001863726
 H      -0.0000483635      -0.0001696838      0.0001421791
 H       0.0003426868       0.0002830223      0.0004200398
 H       0.0001581046      -0.0001019391      0.0001126481
 H       0.0003419008       0.0000765214      0.0002758424
 H       0.0001685197       0.0001684520     -0.0004022432
 H      -0.0000737585       0.0005325606      0.0002516158
 H       0.0003366606      -0.0000224338      0.0002956565
 H      -0.0003392031       0.0001503579     -0.0000015154
 H      -0.0000935153      -0.0001855002     -0.0001511930
 H      -0.0001172680       0.0000981358     -0.0000514116
 H       0.0000044596      -0.0004074048      0.0001138409
 H       0.0004739344       0.0003108315     -0.0000685565
 H      -0.0005121054       0.0000237011     -0.0000220508
 H       0.0001226347      -0.0001509572     -0.0002807200
 H      -0.0000551217       0.0000094613     -0.0002038206
 H       0.0000618109       0.0002664576     -0.0003794888
 H       0.0000593493       0.0001005443     -0.0000053286
 N       0.0035879659       0.0040159782     -0.0006674313
 H      -0.0015159390      -0.0001746170     -0.0020359909
 C       0.0004971234      -0.0011010673      0.0016198448
 C       0.0001382669      -0.0003521356     -0.0001450798
 C       0.0004758902      -0.0001806463     -0.0004386680
 C       0.0000017731       0.0000559262      0.0000607295
 C       0.0006292413      -0.0002233860     -0.0001256245
 C      -0.0007395560       0.0009635366      0.0007226826
 H       0.0000335589      -0.0000081245      0.0000879219
 H       0.0001846792      -0.0000310667     -0.0000633287
 H       0.0001880643      -0.0000302400     -0.0000492479
 H       0.0001329060      -0.0000670802      0.0000776919
 H      -0.0000720101      -0.0000988008     -0.0004395601
 O       0.0018103134      -0.0005374923      0.0023223693
60
terachem gradient in au, energy -1347.4996894333, grad_rms 0.001647, grad_max 0.004777 on atom 1
Mn      -0.0042784990      -0.0010952163     -0.0018211782
 C      -0.0027207255       0.0008035169     -0.0015574779
 N       0.0019189586       0.0010340174      0.0041416657
 C      -0.0004692478      -0.0005484304     -0.0031041099
 C       0.0001769347      -0.0004070102      0.0012320006
 C       0.0008073177       0.0010352449     -0.0016685406
 N       0.0004133573      -0.0025143094      0.0008014604
 C      -0.0017483305       0.0008218216     -0.0011160217
 C      -0.0000771051       0.0003913428      0.0001036907
 C       0.0006937034       0.0004187938      0.0004366225
 N      -0.0019723061      -0.0009861180      0.0002416069
 C       0.0003492921       0.0002369649      0.0006244851
 C      -0.0005607073      -0.0006554776     -0.0003538982