55
terachem gradient in au, energy -1895.9011143708, grad_rms 0.031872, grad_max 0.119813 on atom 1
Mn      -0.0705592250      -0.0832829371      0.0494007250
 C       0.0141034434       0.0028613470      0.0004568321
 N      -0.0052070783       0.0075276459      0.0078754525
 C      -0.0549975847       0.0066345646      0.0014919234
 C       0.0187818172       0.0182514071     -0.0012937945
 C       0.0145376673      -0.0524833494     -0.0010213598
 N       0.0267379700       0.0006349189     -0.0295964422
 C       0.0104063585       0.0135373542     -0.0003767724
 O       0.0186446967      -0.0057603229      0.0037845157
 C      -0.0204248191       0.0516882966     -0.0034377018
 O      -0.0488983915       0.0534104488     -0.0031227341
 C       0.0280403119       0.0521516696     -0.0043293844
 C       0.0511980719       0.0240071684      0.0075442094
 O       0.0426081875      -0.0442496097     -0.0190948111
 C       0.0527617395      -0.0183884963      0.0073632591
 O      -0.0027167109       0.0199861268     -0.0045225329
 C      -0.0136089556       0.0072290542      0.0012188139
 C       0.0086957339      -0.0008886714     -0.0033575984
 C      -0.0145302652      -0.0158335280      0.0021948622
 C      -0.0167639532      -0.0146439447     -0.0036161869
 C      -0.0004276741       0.0087406816      0.0039184935
 C       0.0073654524      -0.0133092216     -0.0024035521
 C      -0.0351942593       0.0188998239     -0.0020579636
 C      -0.0229901098      -0.0003901980     -0.0014675562
 C      -0.0141625583      -0.0133150329      0.0008612075
 C       0.0290963470      -0.0264196698      0.0002121310
 H      -0.0010668000       0.0013341380      0.0081702591
 H       0.0017476632      -0.0006063497     -0.0080386865
 H      -0.0063910788      -0.0003063932     -0.0018673765
 H       0.0012570366       0.0011802424     -0.0077235476
 H       0.0021928308       0.0011708353      0.0103108880
 H      -0.0058704535       0.0016469418     -0.0009045199
 H       0.0016930908      -0.0061841116      0.0012708411
 H       0.0007477714       0.0019670997     -0.0103561573
 H       0.0008403189       0.0017094612      0.0076835556
 H      -0.0004936609      -0.0066371306      0.0022651115
 H       0.0024201959       0.0019269136      0.0015553536
 H       0.0016125523      -0.0013041355      0.0016246855
 H      -0.0018459904       0.0020144616     -0.0009360103
 H       0.0024606210       0.0030505243     -0.0005732524
 P       0.0058099709       0.0053977263     -0.0455882392
 C      -0.0067562426      -0.0011567720      0.0053444115
 C      -0.0021200755      -0.0043470445     -0.0001468771
 C       0.0038586720      -0.0028127917      0.0036873362
 C       0.0019314714       0.0030029040      0.0028656102
 C      -0.0001324221       0.0059129877      0.0005052474
 C      -0.0030115543      -0.0021351782     -0.0006517751
 H       0.0062406731      -0.0108688936      0.0074566030
 H      -0.0066528520       0.0084182615      0.0122094865
 H       0.0001349078       0.0029665134      0.0001966053
 H      -0.0009892825       0.0016745415     -0.0011542539
 H      -0.0012263416      -0.0011434406     -0.0014395549
 H       0.0009828173      -0.0020876073      0.0003228425
 H       0.0019126352      -0.0019240621      0.0020757304
 O      -0.0017826867       0.0015448314      0.0052116491
55
terachem gradient in au, energy -1895.9429600318, grad_rms 0.019728, grad_max 0.093062 on atom 1
Mn      -0.0484435137      -0.0613548109      0.0504918864
 C       0.0046451107      -0.0025837895      0.0010771780
 N       0.0009710264       0.0060034414      0.0075104752
 C      -0.0228194969      -0.0003406444      0.0002403766
 C       0.0151010399       0.0143077521     -0.0009062467
 C       0.0040128556      -0.0200016759     -0.0001118732
 N       0.0165864057       0.0044826204     -0.0300334839
 C       0.0037127844       0.0058893564     -0.0006645768
 O       0.0121238326      -0.0028022193      0.0027268039
 C      -0.0158546425       0.0124873984      0.0017316629
 O      -0.0274504210       0.0394112632      0.0008264874
 C       0.0166064955       0.0291619009     -0.0013509806
 C       0.0308042202       0.0144479394      0.0054504871
 O       0.0260697945      -0.0243666432     -0.0203403650
 C       0.0190594343      -0.0124747938      0.0019946980
 O      -0.0008331298       0.0142243638     -0.0036023582
 C      -0.0071426491       0.0040497683      0.0016401807
 C      -0.0000692368      -0.0019435916     -0.0048951268
 C      -0.0035232958      -0.0040599858      0.0026654494
 C      -0.0040017278      -0.0039109348     -0.0040350912
 C      -0.0014767181      -0.0001577389      0.0051132967
 C       0.0037878991      -0.0075497268     -0.0026517361
 C      -0.0110831323      -0.0003667878     -0.0021260647
 C      -0.0125971687       0.0056917111     -0.0020549274
 C      -0.0020298702      -0.0058841984      0.0014503799
 C       0.0059281929      -0.0064451818      0.0004928475
 H      -0.0026786094      -0.0001605734      0.0047219551
 H      -0.0000732498      -0.0018854104     -0.0046623724
 H      -0.0037721559      -0.0015595454     -0.0015222545
 H       0.0008124234       0.0012322635     -0.0040509731
 H       0.0020651149       0.0012935041      0.0069985347
 H      -0.0033957763       0.0017112852     -0.0004426862
 H       0.0018468220      -0.0037383489      0.0007947253
 H       0.0012358851       0.0020582204     -0.0067476098
 H       0.0008888848       0.0009919120      0.0041788028
 H      -0.0018801786      -0.0041671694      0.0018206558
 H       0.0021082143       0.0009511266      0.0014464740
 H       0.0006170686      -0.0013155346      0.0015446725
 H      -0.0013402173       0.0007625634     -0.0009099435
 H       0.0011398638       0.0022783702     -0.0004660953
 P       0.0038778038       0.0049607727     -0.0324308497
 C      -0.0026500689       0.0001533862      0.0060868241
 C      -0.0013514732      -0.0019722806      0.0007170098
 C       0.0009423815      -0.0011852061      0.0011024638
 C       0.0006663395       0.0013702122      0.0012888315
 C      -0.0001243479       0.0017114105      0.0001150016
 C      -0.0013423700      -0.0010666534      0.0005827203
 H       0.0038397490      -0.0066361850      0.0041069423
 H      -0.0038551669       0.0056576054      0.0079192653
 H       0.0004100239       0.0012186426      0.0000552374
 H      -0.0003921689       0.0008551431     -0.0005777674
 H      -0.0005068734      -0.0004677431     -0.0006032957
 H       0.0006412897      -0.0009658214      0.0001520380
 H       0.0004781916      -0.0005646824      0.0004582437
 O      -0.0002914892       0.0025639428     -0.0023159291
55
terachem gradient in au, energy -1895.9614853552, grad_rms 0.012807, grad_max 0.073694 on atom 1
Mn      -0.0325907099      -0.0466913477      0.0467829338
 C       0.0002678368      -0.0031120916      0.0012210032
 N       0.0018758561       0.0020876588      0.0056673192
 C      -0.0069003211      -0.0016941938      0.0014048495
 C       0.0074645656       0.0067886383     -0.0007713628
 C       0.0023900841      -0.0083684661      0.0007292986
 N       0.0026689861       0.0056750896     -0.0287105898
 C       0.0009978726       0.0017073909     -0.0004351063
 O       0.0022670028      -0.0044122732      0.0032633940
 C      -0.0014171631      -0.0014732213      0.0019313454
 O      -0.0091565986       0.0193174814      0.0044313779
 C       0.0081052527       0.0114619284      0.0012599654
 C       0.0105783466       0.0072804533      0.0021132995
 O       0.0152359142      -0.0057282723     -0.0209067199
 C      -0.0006503264      -0.0046529187     -0.0003187573
 O      -0.0007167279       0.0048026247     -0.0042091839
 C       0.0029663419       0.0027451118      0.0026636330
 C      -0.0033985910      -0.0019778247     -0.0049451511
 C       0.0004162202      -0.0014979172      0.0025789636
 C      -0.0021424380       0.0010376965     -0.0037184161
 C      -0.0019181342      -0.0038405529      0.0045645418
 C       0.0030143444       0.0047210651     -0.0029895591
 C      -0.0053783027      -0.0018263270     -0.0019177274
 C       0.0025427812       0.0069189124     -0.0013384566
 C       0.0025558837       0.0037880184      0.0027323747
 C       0.0006144892      -0.0016615999      0.0004354373
 H      -0.0032620488      -0.0016769652      0.0019513255
 H      -0.0016694727      -0.0024738966     -0.0020348829
 H      -0.0009458377      -0.0008774279     -0.0010359866
 H       0.0007942601       0.0007980105     -0.0006011961
 H       0.0023888144       0.0008393122      0.0036999323
 H      -0.0014381521       0.0004715364      0.0000360979
 H       0.0003349843      -0.0013910805      0.0002657056
 H       0.0008455399       0.0025699102     -0.0032080533
 H       0.0005539920       0.0010481964      0.0009644946
 H      -0.0008819072      -0.0008015688      0.0012807339
 H       0.0007710030       0.0013786416      0.0012573917
 H       0.0010067123      -0.0007898855      0.0012932393
 H      -0.0003991374       0.0006866839     -0.0008030961
 H       0.0011326585       0.0006591365     -0.0004363449
 P       0.0014168865       0.0057492298     -0.0172407133
 C       0.0003994814      -0.0011749304      0.0036087719
 C      -0.0010958934       0.0007387973      0.0007923111
 C      -0.0001316831      -0.0001320303      0.0005984507
 C      -0.0006644344      -0.0002619431      0.0000696041
 C      -0.0004595385       0.0011634114      0.0000329018
 C       0.0016373511      -0.0012064640      0.0005595155
 H       0.0006649589      -0.0019589590      0.0004413957
 H      -0.0007488695       0.0019214583      0.0029678859
 H       0.0004250614       0.0003141584     -0.0001531254
 H       0.0000985963       0.0002345664     -0.0000906133
 H      -0.0001093462       0.0000299033     -0.0002089495
 H       0.0003953996       0.0001459672      0.0000754023
 H       0.0001113447       0.0001375982     -0.0019913456
 O      -0.0008631879       0.0024635706     -0.0036095592
55
terachem gradient in au, energy -1895.9778022338, grad_rms 0.009706, grad_max 0.046855 on atom 1
Mn      -0.0123494482      -0.0257434133      0.0371505863
 C       0.0009585063       0.0021461876      0.0047406158
 N       0.0041558758      -0.0002015052     -0.0047934809
 C       0.0114212828      -0.0023555943      0.0031801480
 C      -0.0007728756      -0.0012284968     -0.0003305193
 C      -0.0068489890       0.0134931799      0.0010219977
 N       0.0006487204       0.0069433394     -0.0206437660
 C      -0.0002935979       0.0043179922     -0.0010502784
 O      -0.0046199787       0.0007920472      0.0034926508
 C       0.0081323566      -0.0079031540     -0.0027301805
 O       0.0115364653       0.0025188852      0.0078171774
 C      -0.0015594419      -0.0050383940      0.0020959181
 C      -0.0073716059      -0.0001827844     -0.0033624914
 O       0.0031647499       0.0135874933     -0.0187888501
 C      -0.0097968965       0.0045569987      0.0036353365
 O       0.0000985385      -0.0035992742     -0.0067091318
 C       0.0054419884      -0.0000614231      0.0010175956
 C      -0.0029998940      -0.0006763820     -0.0024458055
 C       0.0021917300      -0.0001222095      0.0020103320
 C       0.0013637646       0.0028641427     -0.0019832734
 C      -0.0015580022      -0.0039945052      0.0021642341
 C      -0.0008708472       0.0042806010     -0.0000911301
 C       0.0135585728      -0.0072874371      0.0008291722
 C      -0.0049218679      -0.0071252210     -0.0004297014
 C       0.0002744859      -0.0039246874     -0.0027542049
 C      -0.0083173092       0.0072363291      0.0011233510
 H      -0.0002883995      -0.0011918436     -0.0008655531
 H      -0.0011417063      -0.0006918879      0.0007310853
 H       0.0011873399       0.0004379010     -0.0000677391
 H       0.0000455063      -0.0005693694      0.0022526176
 H       0.0011962928       0.0003627080     -0.0005531864
 H       0.0006894100      -0.0004131840      0.0003634450
 H      -0.0002726733       0.0009038351     -0.0000417971
 H       0.0003426258       0.0012124895      0.0010760562
 H       0.0000006113       0.0003943280     -0.0019082685
 H       0.0004133466       0.0010240721      0.0004164120
 H       0.0002216113      -0.0005979399      0.0001748743
 H      -0.0010168987      -0.0009389715     -0.0002974941
 H      -0.0000935426      -0.0008639428     -0.0007420292
 H      -0.0004143064      -0.0002204609     -0.0000116762
 P       0.0029074163       0.0035723614      0.0018848603
 C       0.0055676596       0.0010962541     -0.0014928461
 C      -0.0030832089      -0.0016028240      0.0028709761
 C      -0.0022605591       0.0007834442     -0.0007315360
 C       0.0015249998       0.0021306302      0.0008678195
 C       0.0010463433      -0.0056057224     -0.0002569541
 C      -0.0045221756       0.0037593513     -0.0020761258
 H      -0.0021855336       0.0015198278     -0.0022457386
 H       0.0023363100      -0.0016802060     -0.0020101498
 H       0.0001231900      -0.0006166932     -0.0001805105
 H       0.0003184158       0.0001725306     -0.0001209780
 H       0.0005860720       0.0004587926      0.0004854408
 H      -0.0002168483       0.0000757174     -0.0003450538
 H       0.0005918328      -0.0000057246      0.0024009441
 O      -0.0042694144       0.0038018124     -0.0037431962
55
terachem gradient in au, energy -1895.9831274734, grad_rms 0.008703, grad_max 0.027960 on atom 1
Mn       0.0003170757      -0.0111732211      0.0256282853
 C      -0.0036027558      -0.0030437667      0.0057772428
 N       0.0040779420      -0.0012969519     -0.0023381102
 C       0.0043317982       0.0011481622      0.0078723642
 C      -0.0053250625      -0.0052661200      0.0022393287
 C      -0.0022751895       0.0031863611      0.0011914716
 N      -0.0016209909       0.0052882904     -0.0149737094
 C      -0.0036269660      -0.0019209092     -0.0031066358
 O      -0.0091044557      -0.0008561191      0.0034763751
 C       0.0093042696      -0.0051621656     -0.0064315119
 O       0.0185414049      -0.0033365180      0.0056373344
 C      -0.0058977934      -0.0100189338      0.0004317301
 C      -0.0122026960      -0.0024995725     -0.0057123666
 O      -0.0008869444       0.0188920611     -0.0139123251
 C      -0.0056352825       0.0072980654      0.0072730943
 O      -0.0004004021      -0.0058067767     -0.0078340986
 C      -0.0010887684      -0.0024285233     -0.0018827690
 C      -0.0007486551       0.0003045484      0.0010121333
 C       0.0017909181       0.0013323391      0.0016480805
 C       0.0033178269       0.0013864283     -0.0001843735
 C      -0.0000493568      -0.0008650098     -0.0004322732
 C      -0.0038660609      -0.0033058787      0.0017850949
 C      -0.0043819066       0.0064131215      0.0011305226
 C       0.0139264070       0.0001054562      0.0055529349
 C       0.0044873832       0.0063409537      0.0004626433
 C      -0.0001865561      -0.0038158147     -0.0011914352
 H       0.0017952149      -0.0002420726      0.0002077085
 H       0.0000092165       0.0015495305      0.0019716989
 H       0.0009394666       0.0005625627      0.0005518567
 H      -0.0008017531      -0.0010511007      0.0015674215
 H      -0.0003435009       0.0002974715     -0.0020086794
 H       0.0010911217      -0.0001105528      0.0003526503
 H      -0.0000214424       0.0012656054      0.0000711896
 H      -0.0003576787      -0.0007654546      0.0022570532
 H      -0.0003282701      -0.0004536030     -0.0015379433
 H       0.0005949903       0.0007722726     -0.0003552945
 H      -0.0015277104       0.0001764804     -0.0009344212
 H       0.0005842230       0.0013204145     -0.0010656527
 H       0.0010396744      -0.0000495358      0.0003384803
 H      -0.0001180270      -0.0013128568     -0.0002052390
 P       0.0056043490       0.0035283562      0.0080266870
 C       0.0015041270      -0.0043752196     -0.0065636258
 C      -0.0027163770       0.0017716674      0.0022319858
 C       0.0034069528       0.0022814478      0.0008976293
 C      -0.0042634475      -0.0080976972     -0.0034498513
 C      -0.0019148645       0.0102477651     -0.0059966390
 C       0.0073110208      -0.0022130596     -0.0027891397
 H      -0.0033281256       0.0002976642     -0.0026216813
 H      -0.0001249969      -0.0035743420     -0.0035972669
 H      -0.0000451832      -0.0000974586     -0.0000490527
 H       0.0005517249      -0.0005302561      0.0001145223
 H      -0.0008449342      -0.0000072805     -0.0005083237
 H      -0.0007148421       0.0018429357     -0.0000274937
 H       0.0012148179       0.0003227305      0.0005155313
 O      -0.0073909299       0.0057440804     -0.0005131383
55
terachem gradient in au, energy -1895.9910334484, grad_rms 0.008780, grad_max 0.026951 on atom 24
Mn       0.0005895455      -0.0005280635      0.0206906142
 C      -0.0033878856      -0.0034097701      0.0051700503
 N       0.0018498468      -0.0008892095     -0.0081718470
 C      -0.0038398062       0.0061160099      0.0004211429
 C      -0.0056457193      -0.0055375525     -0.0030881332
 C       0.0028394863      -0.0098207938      0.0002386576
 N      -0.0046886112       0.0010009063     -0.0111312166
 C      -0.0061095764      -0.0082316279     -0.0042247411
 O      -0.0054400683      -0.0026440397      0.0021644603
 C       0.0064002781       0.0026417456     -0.0052340641
 O       0.0137118382      -0.0064577914      0.0039311015
 C      -0.0052268208      -0.0097179180     -0.0007509294
 C      -0.0089498060      -0.0019485879     -0.0053701941
 O      -0.0033056186       0.0138254950     -0.0100500839
 C      -0.0002108334       0.0045239485      0.0079474019
 O      -0.0007668254      -0.0043539516     -0.0076701056
 C      -0.0048317314      -0.0029521481     -0.0028737033
 C       0.0017715984       0.0010770614      0.0035535865
 C       0.0001230269       0.0011305555      0.0009352587
 C       0.0008366033      -0.0012193409      0.0010601168
 C       0.0016760338       0.0035225475     -0.0022121832
 C      -0.0029006804      -0.0037709231      0.0022432794
 C      -0.0173320035       0.0172937437      0.0012672681
 C       0.0249952030       0.0052982759      0.0085755340
 C       0.0066090635       0.0121938546     -0.0011181074
 C       0.0067784984      -0.0110695949     -0.0017967396
 H       0.0022927678      -0.0003865066     -0.0023544628
 H       0.0006560525       0.0026595327      0.0018036859
 H       0.0002639693       0.0001531838      0.0009840199
 H      -0.0010036222      -0.0005682217      0.0000185470
 H      -0.0015278011      -0.0002415065     -0.0019256331
 H       0.0006046869       0.0001600006      0.0002389678
 H      -0.0002499207       0.0007580225     -0.0000541316
 H      -0.0009324147      -0.0019683751      0.0017324263
 H      -0.0003453215      -0.0007411756     -0.0001740127
 H       0.0005102113       0.0007694225     -0.0012148048
 H      -0.0022303416       0.0010152520     -0.0017705379
 H       0.0017317540       0.0025027784     -0.0011033068
 H       0.0013871523       0.0008464143      0.0011206274
 H       0.0002095090      -0.0014829631      0.0000937394
 P       0.0038602966       0.0040034626      0.0090113675
 C      -0.0019818625      -0.0034025858     -0.0015890695
 C      -0.0000596463       0.0038067493      0.0008045765
 C       0.0053405767      -0.0013830901      0.0009645103
 C      -0.0029890233      -0.0030909355     -0.0015885201
 C      -0.0012793294       0.0029072821      0.0037830561
 C       0.0033327507      -0.0007879879     -0.0010165322
 H      -0.0005379981       0.0003930402     -0.0004015635
 H      -0.0018164311      -0.0027851455     -0.0028109114
 H      -0.0002802943       0.0004333086      0.0004335793
 H       0.0003638806      -0.0004143039      0.0004353046
 H       0.0000863795      -0.0002056285     -0.0007461945
 H      -0.0004132110       0.0002174136     -0.0001666279
 H      -0.0008402231      -0.0000752795      0.0001432856
 O       0.0003024187       0.0008350106      0.0008421902
55
terachem gradient in au, energy -1895.9945206810, grad_rms 0.007915, grad_max 0.026644 on atom 24
Mn      -0.0051982590       0.0050079835      0.0134194998
 C       0.0073486572       0.0056902976      0.0030023975
 N       0.0046676248      -0.0033646411     -0.0032598212
 C      -0.0001483873       0.0005932808     -0.0004405442
 C      -0.0022258779      -0.0021658324     -0.0026052146
 C      -0.0044016870       0.0082628079      0.0016494094
 N       0.0021502184       0.0021795256     -0.0054024398
 C       0.0060701380       0.0062435260      0.0025229840
 O       0.0025591455      -0.0015335121      0.0018522024
 C       0.0000983694       0.0098145551     -0.0022748268
 O       0.0020568466      -0.0096801936      0.0002106735
 C      -0.0025742901      -0.0030552548     -0.0020412580
 C      -0.0013678551      -0.0007984543     -0.0027243735
 O      -0.0034995259       0.0053072865     -0.0082069978
 C       0.0049589511      -0.0021087409      0.0040074250
 O       0.0023878342       0.0016387286     -0.0047233134
 C      -0.0013607149      -0.0006953416      0.0000443638
 C       0.0032399573       0.0010241837      0.0036546158
 C      -0.0020732589      -0.0018297933      0.0005241229
 C      -0.0030705380      -0.0020402668      0.0013647810
 C       0.0020119812       0.0050646869     -0.0021981114
 C       0.0004639388       0.0023430074      0.0010319823
 C       0.0180346029      -0.0094139146      0.0060562618
 C      -0.0227101950      -0.0130670080     -0.0048370717
 C      -0.0087709811      -0.0108831316     -0.0025083806
 C      -0.0037657109       0.0119502132     -0.0009314707
 H       0.0009242121       0.0007253718     -0.0003120272
 H       0.0006763662       0.0022213066      0.0005437546
 H      -0.0001799705      -0.0001851445      0.0007125023
 H      -0.0003081086       0.0004307605     -0.0011757483
 H      -0.0010225087      -0.0006805234     -0.0004028120
 H      -0.0004843709      -0.0001453278      0.0000603598
 H      -0.0005301962      -0.0002731600     -0.0002638537
 H      -0.0009593062      -0.0014531089      0.0002133541
 H      -0.0001960990      -0.0001083925      0.0013515493
 H       0.0002464646       0.0006049660     -0.0013567177
 H       0.0014466108      -0.0022269433     -0.0010800338
 H      -0.0018194109      -0.0007227896     -0.0014596978
 H      -0.0008827318      -0.0008159107      0.0006783255
 H      -0.0012338449       0.0009193170      0.0004752035
 P       0.0030946838       0.0031799690      0.0047576772
 C      -0.0005828928       0.0019590139      0.0054119224
 C       0.0035410462      -0.0055317922     -0.0041533528
 C      -0.0108015360       0.0032567109     -0.0036622397
 C       0.0094128549       0.0091612539      0.0068650303
 C       0.0028124267      -0.0120951269      0.0002232849
 C      -0.0030959018       0.0024276107     -0.0019510752
 H       0.0010107859      -0.0004378058      0.0004256434
 H      -0.0021095877      -0.0013528473     -0.0006989473
 H      -0.0004559353      -0.0007986324     -0.0002527105
 H      -0.0012745236       0.0007635475      0.0002294410
 H       0.0013065977       0.0009181405      0.0001706741
 H       0.0012758717      -0.0016529135     -0.0001790599
 H      -0.0025098705       0.0002666541     -0.0026135587
 O       0.0078178918      -0.0028382022      0.0002562164
55
terachem gradient in au, energy -1896.0002313875, grad_rms 0.004182, grad_max 0.014779 on atom 1
Mn      -0.0030034950       0.0023057674      0.0142854777
 C       0.0001821262       0.0007663863      0.0017234779
 N       0.0005390923       0.0014846747     -0.0027007371
 C       0.0032246758      -0.0018468402      0.0009539157
 C      -0.0005249846      -0.0002170095     -0.0015818909
 C       0.0013003782       0.0018652667      0.0010332215
 N       0.0006289580       0.0038595217     -0.0065396184
 C       0.0017746023       0.0022876219      0.0016757420
 O       0.0010482614       0.0002980255      0.0014838163
 C      -0.0026505735       0.0010497568     -0.0022533382
 O       0.0010642905      -0.0010582397      0.0008064270
 C      -0.0024292343       0.0000450233     -0.0022363735
 C       0.0004210673      -0.0020282577     -0.0021528443
 O      -0.0005366233       0.0029948662     -0.0090042970
 C       0.0018374512      -0.0021128422      0.0038791556
 O       0.0006873124       0.0018692971     -0.0048615679
 C       0.0001200032       0.0001371646      0.0013921370
 C       0.0013017615       0.0004582701      0.0013622854
 C      -0.0010581720      -0.0010375662      0.0019724947
 C       0.0008434332       0.0004229175      0.0012135373
 C       0.0006294447       0.0012434937     -0.0012960400
 C       0.0003422896      -0.0006392100     -0.0001769643
 C       0.0051940647      -0.0039535503      0.0012041177
 C      -0.0074846266      -0.0030734698     -0.0015111600
 C      -0.0039862212      -0.0061002414     -0.0030555683
 C      -0.0018922999       0.0048733497      0.0011051547
 H       0.0008994325       0.0002407551     -0.0000707155
 H       0.0004474872       0.0002667674      0.0002517202
 H      -0.0000041024      -0.0000527949      0.0001016140
 H      -0.0001055540       0.0001837290     -0.0004446557
 H      -0.0001977962      -0.0002310986     -0.0002123927
 H      -0.0002337228      -0.0002123440      0.0002147445
 H       0.0000509642      -0.0001641591     -0.0002719251
 H      -0.0003297582      -0.0006898266      0.0005044126
 H      -0.0000640192       0.0001151485      0.0007467574
 H      -0.0002399288      -0.0003208773     -0.0007009492
 H       0.0006668277      -0.0007089314     -0.0004884354
 H      -0.0006100712      -0.0003064837     -0.0002777869
 H      -0.0003085922      -0.0006157620     -0.0000388661
 H      -0.0005167640       0.0001663796      0.0003740711
 P       0.0021806274       0.0007111035      0.0024402368
 C      -0.0025347105      -0.0009761560      0.0006901700
 C      -0.0002056020       0.0029501001      0.0007140837
 C       0.0064148958      -0.0021928275      0.0016331391
 C      -0.0060785923      -0.0055831968     -0.0037670033
 C      -0.0018093567       0.0061961282      0.0022227940
 C       0.0033579723      -0.0008386941      0.0013639421
 H      -0.0000290787       0.0000388739     -0.0005035756
 H       0.0000424316      -0.0004187600     -0.0001787379
 H       0.0002106707       0.0005952602      0.0005863400
 H       0.0006379334      -0.0005935657     -0.0001241824
 H      -0.0006282794      -0.0006623411     -0.0003557581
 H      -0.0004762390       0.0005857575     -0.0000947614
 H       0.0003535497       0.0002405396     -0.0001073633
 O       0.0015363930      -0.0016168985     -0.0009274769
55
terachem gradient in au, energy -1895.9997207170, grad_rms 0.006076, grad_max 0.016065 on atom 23
Mn       0.0011385646       0.0013433647      0.0094127498
 C      -0.0072144021      -0.0059675902      0.0014635611
 N      -0.0036026276       0.0020977796     -0.0026435012
 C      -0.0010952213       0.0005039092      0.0011072438
 C      -0.0000966399      -0.0001324896      0.0001103547
 C       0.0033274250      -0.0063635838      0.0006878373
 N      -0.0016131012      -0.0001001682     -0.0023126905
 C      -0.0041719229      -0.0054559703     -0.0002716928
 O      -0.0014221886       0.0004567508      0.0003804508
 C      -0.0021317491      -0.0033510892     -0.0021572864
 O       0.0016684228       0.0019958020      0.0009481920
 C      -0.0017561835       0.0002489593     -0.0023745635
 C       0.0011091141      -0.0034497973     -0.0026676601
 O       0.0015451691       0.0039454700     -0.0077441692
 C      -0.0015481714      -0.0011516046      0.0034622531
 O       0.0005936978       0.0001092425     -0.0045192549
 C      -0.0013583825      -0.0001302572      0.0012591915
 C      -0.0008648953      -0.0001990833     -0.0002349713
 C      -0.0001233546       0.0016421291      0.0036948892
 C       0.0025147680       0.0008780205      0.0010801182
 C      -0.0002575556      -0.0013440669     -0.0007531677
 C      -0.0003487526      -0.0024851243     -0.0008627258
 C      -0.0135419078       0.0083537403     -0.0022144376
 C       0.0133881094       0.0070646523      0.0047760396
 C       0.0058534373       0.0103573676      0.0002063079
 C       0.0063202502      -0.0107369143     -0.0002321350
 H      -0.0001339673      -0.0006486236      0.0004576635
 H      -0.0001826169      -0.0005512847      0.0001712844
 H       0.0000730319       0.0000238604     -0.0002953491
 H      -0.0001264448      -0.0000105694      0.0002759699
 H       0.0000423682       0.0001864690     -0.0004182568
 H       0.0002111121       0.0001240025      0.0004962079
 H       0.0003487313       0.0000770748     -0.0003447869
 H      -0.0000743266      -0.0003515663      0.0009110760
 H       0.0000041560       0.0002291138      0.0001035670
 H      -0.0003332523      -0.0004185977     -0.0002192317
 H      -0.0010614766       0.0012864086     -0.0000656112
 H       0.0011372278       0.0007474287      0.0005620126
 H       0.0008786819       0.0007797605      0.0000465439
 H       0.0009461591      -0.0010071359     -0.0000955647
 P       0.0016166088      -0.0001273940      0.0017313789
 C       0.0018376889       0.0025789420     -0.0003678546
 C       0.0017549155      -0.0036609678     -0.0004419907
 C      -0.0098650650       0.0021045396     -0.0028262291
 C       0.0085437051       0.0108492158      0.0056313061
 C       0.0053376957      -0.0135655933     -0.0037286311
 C      -0.0083337395       0.0031809860     -0.0007566585
 H      -0.0004539266       0.0002257682     -0.0007842203
 H       0.0007990693      -0.0006153308     -0.0004948179
 H      -0.0002785730      -0.0007956920     -0.0005192495
 H      -0.0008426181       0.0011677313     -0.0002006454
 H       0.0011881322       0.0009096476      0.0008955119
 H       0.0009292730      -0.0012105797     -0.0001260733